 Entering Gaussian System, Link 0=g16
 Input=str45.-10.-2.5.com
 Output=str45.-10.-2.5.log
 Initial command:
 /share/apps/g16/l1.exe "/state/partition1/scr/Gau-25195.inp" -scrdir="/state/partition1/scr/"
 Entering Link 1 = /share/apps/g16/l1.exe PID=     25196.
  
 Copyright (c) 1988,1990,1992,1993,1995,1998,2003,2009,2016,
            Gaussian, Inc.  All Rights Reserved.
  
 This is part of the Gaussian(R) 16 program.  It is based on
 the Gaussian(R) 09 system (copyright 2009, Gaussian, Inc.),
 the Gaussian(R) 03 system (copyright 2003, Gaussian, Inc.),
 the Gaussian(R) 98 system (copyright 1998, Gaussian, Inc.),
 the Gaussian(R) 94 system (copyright 1995, Gaussian, Inc.),
 the Gaussian 92(TM) system (copyright 1992, Gaussian, Inc.),
 the Gaussian 90(TM) system (copyright 1990, Gaussian, Inc.),
 the Gaussian 88(TM) system (copyright 1988, Gaussian, Inc.),
 the Gaussian 86(TM) system (copyright 1986, Carnegie Mellon
 University), and the Gaussian 82(TM) system (copyright 1983,
 Carnegie Mellon University). Gaussian is a federally registered
 trademark of Gaussian, Inc.
  
 This software contains proprietary and confidential information,
 including trade secrets, belonging to Gaussian, Inc.
  
 This software is provided under written license and may be
 used, copied, transmitted, or stored only in accord with that
 written license.
  
 The following legend is applicable only to US Government
 contracts under FAR:
  
                    RESTRICTED RIGHTS LEGEND
  
 Use, reproduction and disclosure by the US Government is
 subject to restrictions as set forth in subparagraphs (a)
 and (c) of the Commercial Computer Software - Restricted
 Rights clause in FAR 52.227-19.
  
 Gaussian, Inc.
 340 Quinnipiac St., Bldg. 40, Wallingford CT 06492
  
  
 ---------------------------------------------------------------
 Warning -- This program may not be used in any manner that
 competes with the business of Gaussian, Inc. or will provide
 assistance to any competitor of Gaussian, Inc.  The licensee
 of this program is prohibited from giving any competitor of
 Gaussian, Inc. access to this program.  By using this program,
 the user acknowledges that Gaussian, Inc. is engaged in the
 business of creating and licensing software in the field of
 computational chemistry and represents and warrants to the
 licensee that it is not a competitor of Gaussian, Inc. and that
 it will not use this program in any manner prohibited above.
 ---------------------------------------------------------------
  

 Cite this work as:
 Gaussian 16, Revision A.03,
 M. J. Frisch, G. W. Trucks, H. B. Schlegel, G. E. Scuseria, 
 M. A. Robb, J. R. Cheeseman, G. Scalmani, V. Barone, 
 G. A. Petersson, H. Nakatsuji, X. Li, M. Caricato, A. V. Marenich, 
 J. Bloino, B. G. Janesko, R. Gomperts, B. Mennucci, H. P. Hratchian, 
 J. V. Ortiz, A. F. Izmaylov, J. L. Sonnenberg, D. Williams-Young, 
 F. Ding, F. Lipparini, F. Egidi, J. Goings, B. Peng, A. Petrone, 
 T. Henderson, D. Ranasinghe, V. G. Zakrzewski, J. Gao, N. Rega, 
 G. Zheng, W. Liang, M. Hada, M. Ehara, K. Toyota, R. Fukuda, 
 J. Hasegawa, M. Ishida, T. Nakajima, Y. Honda, O. Kitao, H. Nakai, 
 T. Vreven, K. Throssell, J. A. Montgomery, Jr., J. E. Peralta, 
 F. Ogliaro, M. J. Bearpark, J. J. Heyd, E. N. Brothers, K. N. Kudin, 
 V. N. Staroverov, T. A. Keith, R. Kobayashi, J. Normand, 
 K. Raghavachari, A. P. Rendell, J. C. Burant, S. S. Iyengar, 
 J. Tomasi, M. Cossi, J. M. Millam, M. Klene, C. Adamo, R. Cammi, 
 J. W. Ochterski, R. L. Martin, K. Morokuma, O. Farkas, 
 J. B. Foresman, and D. J. Fox, Gaussian, Inc., Wallingford CT, 2016.
 
 ******************************************
 Gaussian 16:  EM64L-G16RevA.03 25-Dec-2016
                23-Jan-2018 
 ******************************************
 %nprocshared=32
 Will use up to   32 processors via shared memory.
 %mem=32GB
 %chk=allatoms_t.chk
 ---------------------------------------
 #p wb97xd/cc-pvdz sp scf=(maxcycles=20)
 ---------------------------------------
 1/38=1,172=1/1;
 2/12=2,17=6,18=5,40=1/2;
 3/5=16,11=2,25=1,30=1,74=-58/1,2,3;
 4//1;
 5/5=2,7=20,38=5/2;
 6/7=2,8=2,9=2,10=2,28=1/1;
 99/5=1,9=1/99;
 Leave Link    1 at Tue Jan 23 18:26:08 2018, MaxMem=  4294967296 cpu:               2.7 elap:               0.1
 (Enter /share/apps/g16/l101.exe)
 ------------------
 Base pair stacking
 ------------------
 Symbolic Z-matrix:
 Charge =  0 Multiplicity = 1
 N                     7.87731   5.05909  -7.71635 
 C                     8.97368   6.03851  -7.84566 
 C                     5.90936   4.12969  -7.39901 
 N                     6.78544   3.09389  -7.68937 
 C                     7.936     3.69527  -7.86894 
 H                     8.86875   3.18788  -8.11685 
 N                     3.96442   5.35245  -6.86513 
 C                     4.7312    6.44666  -6.91348 
 H                     4.21654   7.38453  -6.70902 
 N                     6.03215   6.55578  -7.17523 
 C                     6.56792   5.34693  -7.41199 
 C                     4.53321   4.15138  -7.10802 
 N                     3.76945   3.05797  -7.06022 
 H                     4.1482    2.14812  -7.23327 
 H                     2.79318   3.11096  -6.84991 
 H                     9.35614   5.99283  -8.7686 
 H                     8.6213    6.95858  -7.67709 
 H                     9.68969   5.83036  -7.17933 
 N                     3.05282   6.624    -3.42416 
 C                     1.9059    5.87799  -3.2972 
 C                     3.11426   8.09936  -3.43924 
 N                    -1.54292   5.70313  -2.92735 
 H                    -2.24122   4.99221  -2.84857 
 H                    -1.85682   6.65255  -2.89926 
 N                     0.65248   6.36353  -3.16595 
 C                    -0.24369   5.39802  -3.06454 
 N                     0.06216   4.05886  -3.08952 
 H                    -0.68812   3.3903   -3.00542 
 C                     1.34477   3.53659  -3.22368 
 O                     1.51252   2.31083  -3.23455 
 C                     2.3183    4.56179  -3.33371 
 N                     3.69638   4.48306  -3.48063 
 C                     4.08802   5.72741  -3.5297 
 H                     5.12417   6.04831  -3.64236 
 H                     3.50819   8.4094   -4.30383 
 H                     2.19157   8.47027  -3.34271 
 H                     3.68174   8.41876  -2.68111 
 H                    -4.92273   0.58189  -3.18877 
 H                    -4.59464   0.34995  -1.47319 
 H                    -4.13271   1.85828  -2.26245 
 H                    -1.43739  -2.72797  -3.39795 
 C                    -1.54858  -1.65639  -3.23182 
 O                     0.74385  -1.1741   -3.60502 
 C                    -0.40042  -0.80873  -3.3368 
 H                     0.13582   1.15953  -3.17325 
 N                    -0.65105   0.52921  -3.10798 
 O                    -1.98157   2.302    -2.61386 
 C                    -1.85847   1.10404  -2.79936 
 H                    -3.64332  -1.7263   -2.84066 
 C                    -2.73965  -1.12517  -2.93222 
 C                    -4.2281    0.79005  -2.38863 
 N                    -2.91759   0.22168  -2.7161 
 H                    -3.7267    6.43154  -5.32746 
 H                    -2.29051   6.64885  -4.58434 
 H                    -3.51604   5.91649  -3.79326 
 H                     0.85019   0.82557  -6.96777 
 H                    -0.83572   0.6235   -6.80354 
 N                    -0.03481   1.21672  -6.71494 
 C                    -0.14323   2.47342  -6.27892 
 C                    -1.31571   4.38268  -5.47783 
 N                    -0.223     5.15633  -5.36892 
 H                     1.79858   5.04058  -5.68582 
 C                     0.86384   4.48452  -5.74356 
 N                     0.9745    3.22581  -6.18057 
 H                    -4.4481    3.60049  -5.309 
 C                    -3.36753   3.60941  -5.45467 
 N                    -2.66612   2.59233  -5.89198 
 C                    -1.36344   3.06918  -5.91141 
 C                    -3.07352   6.0353   -4.68222 
 N                    -2.61423   4.72571  -5.18424 
 
 ITRead=  0  0  0  0  0  0  0  0  0  0  0  0  0  0  0  0  0  0  0  0
 ITRead=  0  0  0  0  0  0  0  0  0  0  0  0  0  0  0  0  0  0  0  0
 ITRead=  0  0  0  0  0  0  0  0  0  0  0  0  0  0  0  0  0  0  0  0
 ITRead=  0  0  0  0  0  0  0  0  0  0
 MicOpt= -1 -1 -1 -1 -1 -1 -1 -1 -1 -1 -1 -1 -1 -1 -1 -1 -1 -1 -1 -1
 MicOpt= -1 -1 -1 -1 -1 -1 -1 -1 -1 -1 -1 -1 -1 -1 -1 -1 -1 -1 -1 -1
 MicOpt= -1 -1 -1 -1 -1 -1 -1 -1 -1 -1 -1 -1 -1 -1 -1 -1 -1 -1 -1 -1
 MicOpt= -1 -1 -1 -1 -1 -1 -1 -1 -1 -1
 NAtoms=     70 NQM=       70 NQMF=       0 NMMI=      0 NMMIF=      0
                NMic=       0 NMicF=      0.
                    Isotopes and Nuclear Properties:
 (Nuclear quadrupole moments (NQMom) in fm**2, nuclear magnetic moments (NMagM)
  in nuclear magnetons)

  Atom         1           2           3           4           5           6           7           8           9          10
 IAtWgt=          14          12          12          14          12           1          14          12           1          14
 AtmWgt=  14.0030740  12.0000000  12.0000000  14.0030740  12.0000000   1.0078250  14.0030740  12.0000000   1.0078250  14.0030740
 NucSpn=           2           0           0           2           0           1           2           0           1           2
 AtZEff=  -0.0000000  -0.0000000  -0.0000000  -0.0000000  -0.0000000  -0.0000000  -0.0000000  -0.0000000  -0.0000000  -0.0000000
 NQMom=    2.0440000   0.0000000   0.0000000   2.0440000   0.0000000   0.0000000   2.0440000   0.0000000   0.0000000   2.0440000
 NMagM=    0.4037610   0.0000000   0.0000000   0.4037610   0.0000000   2.7928460   0.4037610   0.0000000   2.7928460   0.4037610
 AtZNuc=   7.0000000   6.0000000   6.0000000   7.0000000   6.0000000   1.0000000   7.0000000   6.0000000   1.0000000   7.0000000

  Atom        11          12          13          14          15          16          17          18          19          20
 IAtWgt=          12          12          14           1           1           1           1           1          14          12
 AtmWgt=  12.0000000  12.0000000  14.0030740   1.0078250   1.0078250   1.0078250   1.0078250   1.0078250  14.0030740  12.0000000
 NucSpn=           0           0           2           1           1           1           1           1           2           0
 AtZEff=  -0.0000000  -0.0000000  -0.0000000  -0.0000000  -0.0000000  -0.0000000  -0.0000000  -0.0000000  -0.0000000  -0.0000000
 NQMom=    0.0000000   0.0000000   2.0440000   0.0000000   0.0000000   0.0000000   0.0000000   0.0000000   2.0440000   0.0000000
 NMagM=    0.0000000   0.0000000   0.4037610   2.7928460   2.7928460   2.7928460   2.7928460   2.7928460   0.4037610   0.0000000
 AtZNuc=   6.0000000   6.0000000   7.0000000   1.0000000   1.0000000   1.0000000   1.0000000   1.0000000   7.0000000   6.0000000

  Atom        21          22          23          24          25          26          27          28          29          30
 IAtWgt=          12          14           1           1          14          12          14           1          12          16
 AtmWgt=  12.0000000  14.0030740   1.0078250   1.0078250  14.0030740  12.0000000  14.0030740   1.0078250  12.0000000  15.9949146
 NucSpn=           0           2           1           1           2           0           2           1           0           0
 AtZEff=  -0.0000000  -0.0000000  -0.0000000  -0.0000000  -0.0000000  -0.0000000  -0.0000000  -0.0000000  -0.0000000  -0.0000000
 NQMom=    0.0000000   2.0440000   0.0000000   0.0000000   2.0440000   0.0000000   2.0440000   0.0000000   0.0000000   0.0000000
 NMagM=    0.0000000   0.4037610   2.7928460   2.7928460   0.4037610   0.0000000   0.4037610   2.7928460   0.0000000   0.0000000
 AtZNuc=   6.0000000   7.0000000   1.0000000   1.0000000   7.0000000   6.0000000   7.0000000   1.0000000   6.0000000   8.0000000

  Atom        31          32          33          34          35          36          37          38          39          40
 IAtWgt=          12          14          12           1           1           1           1           1           1           1
 AtmWgt=  12.0000000  14.0030740  12.0000000   1.0078250   1.0078250   1.0078250   1.0078250   1.0078250   1.0078250   1.0078250
 NucSpn=           0           2           0           1           1           1           1           1           1           1
 AtZEff=  -0.0000000  -0.0000000  -0.0000000  -0.0000000  -0.0000000  -0.0000000  -0.0000000  -0.0000000  -0.0000000  -0.0000000
 NQMom=    0.0000000   2.0440000   0.0000000   0.0000000   0.0000000   0.0000000   0.0000000   0.0000000   0.0000000   0.0000000
 NMagM=    0.0000000   0.4037610   0.0000000   2.7928460   2.7928460   2.7928460   2.7928460   2.7928460   2.7928460   2.7928460
 AtZNuc=   6.0000000   7.0000000   6.0000000   1.0000000   1.0000000   1.0000000   1.0000000   1.0000000   1.0000000   1.0000000

  Atom        41          42          43          44          45          46          47          48          49          50
 IAtWgt=           1          12          16          12           1          14          16          12           1          12
 AtmWgt=   1.0078250  12.0000000  15.9949146  12.0000000   1.0078250  14.0030740  15.9949146  12.0000000   1.0078250  12.0000000
 NucSpn=           1           0           0           0           1           2           0           0           1           0
 AtZEff=  -0.0000000  -0.0000000  -0.0000000  -0.0000000  -0.0000000  -0.0000000  -0.0000000  -0.0000000  -0.0000000  -0.0000000
 NQMom=    0.0000000   0.0000000   0.0000000   0.0000000   0.0000000   2.0440000   0.0000000   0.0000000   0.0000000   0.0000000
 NMagM=    2.7928460   0.0000000   0.0000000   0.0000000   2.7928460   0.4037610   0.0000000   0.0000000   2.7928460   0.0000000
 AtZNuc=   1.0000000   6.0000000   8.0000000   6.0000000   1.0000000   7.0000000   8.0000000   6.0000000   1.0000000   6.0000000

  Atom        51          52          53          54          55          56          57          58          59          60
 IAtWgt=          12          14           1           1           1           1           1          14          12          12
 AtmWgt=  12.0000000  14.0030740   1.0078250   1.0078250   1.0078250   1.0078250   1.0078250  14.0030740  12.0000000  12.0000000
 NucSpn=           0           2           1           1           1           1           1           2           0           0
 AtZEff=  -0.0000000  -0.0000000  -0.0000000  -0.0000000  -0.0000000  -0.0000000  -0.0000000  -0.0000000  -0.0000000  -0.0000000
 NQMom=    0.0000000   2.0440000   0.0000000   0.0000000   0.0000000   0.0000000   0.0000000   2.0440000   0.0000000   0.0000000
 NMagM=    0.0000000   0.4037610   2.7928460   2.7928460   2.7928460   2.7928460   2.7928460   0.4037610   0.0000000   0.0000000
 AtZNuc=   6.0000000   7.0000000   1.0000000   1.0000000   1.0000000   1.0000000   1.0000000   7.0000000   6.0000000   6.0000000

  Atom        61          62          63          64          65          66          67          68          69          70
 IAtWgt=          14           1          12          14           1          12          14          12          12          14
 AtmWgt=  14.0030740   1.0078250  12.0000000  14.0030740   1.0078250  12.0000000  14.0030740  12.0000000  12.0000000  14.0030740
 NucSpn=           2           1           0           2           1           0           2           0           0           2
 AtZEff=  -0.0000000  -0.0000000  -0.0000000  -0.0000000  -0.0000000  -0.0000000  -0.0000000  -0.0000000  -0.0000000  -0.0000000
 NQMom=    2.0440000   0.0000000   0.0000000   2.0440000   0.0000000   0.0000000   2.0440000   0.0000000   0.0000000   2.0440000
 NMagM=    0.4037610   2.7928460   0.0000000   0.4037610   2.7928460   0.0000000   0.4037610   0.0000000   0.0000000   0.4037610
 AtZNuc=   7.0000000   1.0000000   6.0000000   7.0000000   1.0000000   6.0000000   7.0000000   6.0000000   6.0000000   7.0000000
 Leave Link  101 at Tue Jan 23 18:26:08 2018, MaxMem=  4294967296 cpu:               7.2 elap:               0.3
 (Enter /share/apps/g16/l202.exe)
 Stoichiometry    C23H27N17O3
 Framework group  C1[X(C23H27N17O3)]
 Deg. of freedom   204
 Full point group                 C1      NOp   1
 Largest Abelian subgroup         C1      NOp   1
 Largest concise Abelian subgroup C1      NOp   1
                         Standard orientation:                         
 ---------------------------------------------------------------------
 Center     Atomic      Atomic             Coordinates (Angstroms)
 Number     Number       Type             X           Y           Z
 ---------------------------------------------------------------------
      1          7           0       -7.152105   -1.435997    0.156500
      2          6           0       -8.513081   -0.909051   -0.062784
      3          6           0       -4.994950   -1.599401    0.553107
      4          7           0       -5.455379   -2.895416    0.371292
      5          6           0       -6.736563   -2.745109    0.139630
      6          1           0       -7.432107   -3.562732   -0.051780
      7          7           0       -3.601444    0.261063    0.952827
      8          6           0       -4.694407    1.016014    0.800950
      9          1           0       -4.537510    2.088395    0.908945
     10          7           0       -5.946187    0.646919    0.536931
     11          6           0       -6.029337   -0.689000    0.423663
     12          6           0       -3.718095   -1.079493    0.832877
     13          7           0       -2.628226   -1.834784    0.984142
     14          1           0       -2.667941   -2.831380    0.903862
     15          1           0       -1.735363   -1.430442    1.182746
     16          1           0       -9.133144   -1.287048    0.624835
     17          1           0       -8.501501    0.087625    0.012172
     18          1           0       -8.830668   -1.169392   -0.974570
     19          7           0       -2.151226    2.522303   -1.706457
     20          6           0       -0.835867    2.225455   -1.442286
     21          6           0       -2.768576    3.857125   -1.572976
     22          7           0        2.331391    3.233398   -0.435184
     23          1           0        3.230053    2.816780   -0.300748
     24          1           0        2.251869    4.212138   -0.244231
     25          7           0        0.106020    3.096310   -1.019797
     26          6           0        1.279575    2.512809   -0.852732
     27          7           0        1.514826    1.178682   -1.081380
     28          1           0        2.444083    0.818602   -0.927141
     29          6           0        0.560690    0.264186   -1.516323
     30          8           0        0.876891   -0.918950   -1.692255
     31          6           0       -0.705157    0.876320   -1.700240
     32          7           0       -1.914111    0.337026   -2.117949
     33          6           0       -2.740313    1.347695   -2.106364
     34          1           0       -3.794118    1.291463   -2.381336
     35          1           0       -3.513972    3.816515   -0.908478
     36          1           0       -2.080359    4.510583   -1.260569
     37          1           0       -3.127349    4.150328   -2.458485
     38          1           0        7.104063   -0.479690    0.638658
     39          1           0        7.479623   -0.394695   -1.080756
     40          1           0        6.246332    0.663651   -0.394996
     41          1           0        5.279733   -4.668155   -0.869690
     42          6           0        5.024811   -3.608320   -0.872973
     43          8           0        2.738384   -3.971247   -1.390326
     44          6           0        3.677162   -3.213180   -1.147793
     45          1           0        2.522441   -1.531999   -1.316906
     46          7           0        3.462529   -1.849813   -1.127284
     47          8           0        4.103775    0.314670   -0.880219
     48          6           0        4.389876   -0.869730   -0.876278
     49          1           0        6.990193   -2.923757   -0.409858
     50          6           0        5.951570   -2.675608   -0.624440
     51          6           0        6.691651   -0.318925   -0.346297
     52          7           0        5.666569   -1.329825   -0.620166
     53          1           0        3.142123    4.027455    2.690866
     54          1           0        2.066966    3.950582    1.466031
     55          1           0        3.666039    3.846347    1.155895
     56          1           0        0.769441   -2.951288    1.834736
     57          1           0        2.356398   -2.569733    2.330800
     58          7           0        1.469457   -2.254464    1.991451
     59          6           0        1.231784   -0.962005    1.758590
     60          6           0        1.786993    1.350283    1.676135
     61          7           0        0.586458    1.744763    1.220599
     62          1           0       -1.220661    0.929688    0.700422
     63          6           0       -0.221981    0.697833    1.068060
     64          7           0        0.014191   -0.597411    1.300745
     65          1           0        4.844359    1.653023    2.682641
     66          6           0        3.859480    1.288042    2.389838
     67          7           0        3.493870    0.029687    2.413073
     68          6           0        2.181838    0.055130    1.962892
     69          6           0        2.943070    3.608816    1.804805
     70          7           0        2.875869    2.142135    1.954229
 ---------------------------------------------------------------------
 Rotational constants (GHZ):           0.1455122           0.0502835           0.0442258
 Leave Link  202 at Tue Jan 23 18:26:08 2018, MaxMem=  4294967296 cpu:               0.3 elap:               0.0
 (Enter /share/apps/g16/l301.exe)
 Standard basis: CC-pVDZ (5D, 7F)
 Ernie: Thresh=  0.10000D-02 Tol=  0.10000D-05 Strict=F.
 Ernie:  86 primitive shells out of 1081 were deleted.
 There are   780 symmetry adapted cartesian basis functions of A   symmetry.
 There are   737 symmetry adapted basis functions of A   symmetry.
   737 basis functions,  1608 primitive gaussians,   780 cartesian basis functions
   154 alpha electrons      154 beta electrons
       nuclear repulsion energy      5464.7189132151 Hartrees.
 IExCor= 4639 DFT=T Ex+Corr=wB97XD ExCW=0 ScaHFX=  1.000000
 ScaDFX=  1.000000  1.000000  1.000000  1.000000 ScalE2=  1.000000  1.000000
 IRadAn=      5 IRanWt=     -1 IRanGd=            0 ICorTp=0 IEmpDi=121
 HFx  wShort=  0.000000 wLong=  0.200000 cFull=  0.222036 cShort=  0.000000 cLong=  0.777964
 DFx  wShort=  0.000000 wLong=  0.200000 cFull=  0.000000 cShort=  0.000000 cLong=  1.000000
 NAtoms=   70 NActive=   70 NUniq=   70 SFac= 1.00D+00 NAtFMM=   60 NAOKFM=T Big=T
 Integral buffers will be    131072 words long.
 Raffenetti 2 integral format.
 Two-electron integral symmetry is turned on.
 R6Disp:  Grimme-D2 Dispersion energy=       -0.0695668260 Hartrees.
 Nuclear repulsion after empirical dispersion term =     5464.6493463891 Hartrees.
 Leave Link  301 at Tue Jan 23 18:26:08 2018, MaxMem=  4294967296 cpu:               2.1 elap:               0.1
 (Enter /share/apps/g16/l302.exe)
 NPDir=0 NMtPBC=     1 NCelOv=     1 NCel=       1 NClECP=     1 NCelD=      1
         NCelK=      1 NCelE2=     1 NClLst=     1 CellRange=     0.0.
 One-electron integrals computed using PRISM.
 One-electron integral symmetry used in STVInt
 NBasis=   737 RedAO= T EigKep=  6.84D-04  NBF=   737
 NBsUse=   737 1.00D-06 EigRej= -1.00D+00 NBFU=   737
 Precomputing XC quadrature grid using
 IXCGrd= 4 IRadAn=           5 IRanWt=          -1 IRanGd=           0 AccXCQ= 0.00D+00.
 Generated NRdTot=       0 NPtTot=           0 NUsed=           0 NTot=          32
 NSgBfM=   756   755   755   756   756 MxSgAt=    70 MxSgA2=    70.
 Leave Link  302 at Tue Jan 23 18:26:13 2018, MaxMem=  4294967296 cpu:             136.4 elap:               4.3
 (Enter /share/apps/g16/l303.exe)
 DipDrv:  MaxL=1.
 Leave Link  303 at Tue Jan 23 18:26:13 2018, MaxMem=  4294967296 cpu:              16.4 elap:               0.6
 (Enter /share/apps/g16/l401.exe)
 ExpMin= 1.22D-01 ExpMax= 1.17D+04 ExpMxC= 4.01D+02 IAcc=3 IRadAn=         5 AccDes= 0.00D+00
 Harris functional with IExCor= 4639 and IRadAn=       5 diagonalized for initial guess.
 HarFok:  IExCor= 4639 AccDes= 0.00D+00 IRadAn=         5 IDoV= 1 UseB2=F ITyADJ=14
 ICtDFT=  3500011 ScaDFX=  1.000000  1.000000  1.000000  1.000000
 FoFCou: FMM=F IPFlag=           0 FMFlag=      100000 FMFlg1=        2001
         NFxFlg=           0 DoJE=T BraDBF=F KetDBF=T FulRan=T
         wScrn=  0.000000 ICntrl=       500 IOpCl=  0 I1Cent=   200000004 NGrid=           0
         NMat0=    1 NMatS0=      1 NMatT0=    0 NMatD0=    1 NMtDS0=    0 NMtDT0=    0
 Petite list used in FoFCou.
 Harris En= -1963.79618680408    
 JPrj=0 DoOrth=F DoCkMO=F.
 Leave Link  401 at Tue Jan 23 18:26:26 2018, MaxMem=  4294967296 cpu:             391.4 elap:              12.3
 (Enter /share/apps/g16/l502.exe)
 Integral symmetry usage will be decided dynamically.
 Closed shell SCF:
 Using DIIS extrapolation, IDIIS=  1040.
 NGot=  4294967296 LenX=  4293717438 LenY=  4293108258
 Requested convergence on RMS density matrix=1.00D-08 within  20 cycles.
 Requested convergence on MAX density matrix=1.00D-06.
 Requested convergence on             energy=1.00D-06.
 No special actions if energy rises.
 Fock matrices will be formed incrementally for  20 cycles.
 Integral accuracy reduced to 1.0D-05 until final iterations.

 Cycle   1  Pass 0  IDiag  1:
 FoFJK:  IHMeth= 1 ICntrl=       0 DoSepK=T KAlg= 0 I1Cent=           0 FoldK=F
 IRaf=         1 NMat=       1 IRICut=       1 DoRegI=T DoRafI=F ISym2E= 0 IDoP0=0 IntGTp=1.
 FoFCou: FMM=T IPFlag=           0 FMFlag=      100000 FMFlg1=        2001
         NFxFlg=           0 DoJE=T BraDBF=F KetDBF=F FulRan=T
         wScrn=  0.000000 ICntrl=       500 IOpCl=  0 I1Cent=           0 NGrid=           0
         NMat0=    1 NMatS0=      1 NMatT0=    0 NMatD0=    1 NMtDS0=    0 NMtDT0=    0
 Symmetry not used in FoFCou.
 FMM levels:  10  Number of levels for PrismC:   9
 E= -2048.24154001907    
 DIIS: error= 2.60D-02 at cycle   1 NSaved=   1.
 NSaved= 1 IEnMin= 1 EnMin= -2048.24154001907     IErMin= 1 ErrMin= 2.60D-02
 ErrMax= 2.60D-02  0.00D+00 EMaxC= 1.00D-01 BMatC= 8.34D-01 BMatP= 8.34D-01
 IDIUse=3 WtCom= 7.40D-01 WtEn= 2.60D-01
 Coeff-Com:  0.100D+01
 Coeff-En:   0.100D+01
 Coeff:      0.100D+01
 Gap=     0.256 Goal=   None    Shift=    0.000
 GapD=    0.256 DampG=1.000 DampE=0.500 DampFc=0.5000 IDamp=-1.
 Damping current iteration by 5.00D-01
 RMSDP=1.60D-03 MaxDP=1.29D-01              OVMax= 2.08D-01

 Cycle   2  Pass 0  IDiag  1:
 RMSU=  7.98D-04    CP:  9.98D-01
 E= -2048.43977833390     Delta-E=       -0.198238314827 Rises=F Damp=T
 DIIS: error= 1.30D-02 at cycle   2 NSaved=   2.
 NSaved= 2 IEnMin= 2 EnMin= -2048.43977833390     IErMin= 2 ErrMin= 1.30D-02
 ErrMax= 1.30D-02  0.00D+00 EMaxC= 1.00D-01 BMatC= 1.45D-01 BMatP= 8.34D-01
 IDIUse=3 WtCom= 8.70D-01 WtEn= 1.30D-01
 Coeff-Com: -0.192D+00 0.119D+01
 Coeff-En:   0.000D+00 0.100D+01
 Coeff:     -0.167D+00 0.117D+01
 Gap=     0.357 Goal=   None    Shift=    0.000
 RMSDP=6.00D-04 MaxDP=3.30D-02 DE=-1.98D-01 OVMax= 1.27D-01

 Cycle   3  Pass 0  IDiag  1:
 RMSU=  5.89D-04    CP:  9.94D-01  1.13D+00
 E= -2048.62242647195     Delta-E=       -0.182648138048 Rises=F Damp=F
 DIIS: error= 7.41D-03 at cycle   3 NSaved=   3.
 NSaved= 3 IEnMin= 3 EnMin= -2048.62242647195     IErMin= 3 ErrMin= 7.41D-03
 ErrMax= 7.41D-03  0.00D+00 EMaxC= 1.00D-01 BMatC= 6.24D-02 BMatP= 1.45D-01
 IDIUse=3 WtCom= 9.26D-01 WtEn= 7.41D-02
 Coeff-Com: -0.230D+00 0.543D+00 0.686D+00
 Coeff-En:   0.000D+00 0.000D+00 0.100D+01
 Coeff:     -0.213D+00 0.503D+00 0.709D+00
 Gap=     0.278 Goal=   None    Shift=    0.000
 RMSDP=3.60D-04 MaxDP=3.31D-02 DE=-1.83D-01 OVMax= 6.92D-02

 Cycle   4  Pass 0  IDiag  1:
 RMSU=  2.06D-04    CP:  9.94D-01  1.41D+00  6.80D-01
 E= -2048.66979827278     Delta-E=       -0.047371800830 Rises=F Damp=F
 DIIS: error= 2.90D-03 at cycle   4 NSaved=   4.
 NSaved= 4 IEnMin= 4 EnMin= -2048.66979827278     IErMin= 4 ErrMin= 2.90D-03
 ErrMax= 2.90D-03  0.00D+00 EMaxC= 1.00D-01 BMatC= 9.08D-03 BMatP= 6.24D-02
 IDIUse=3 WtCom= 9.71D-01 WtEn= 2.90D-02
 Coeff-Com: -0.959D-01 0.186D+00 0.381D+00 0.529D+00
 Coeff-En:   0.000D+00 0.000D+00 0.648D-01 0.935D+00
 Coeff:     -0.931D-01 0.181D+00 0.372D+00 0.541D+00
 Gap=     0.281 Goal=   None    Shift=    0.000
 RMSDP=1.30D-04 MaxDP=1.19D-02 DE=-4.74D-02 OVMax= 1.42D-02

 Cycle   5  Pass 0  IDiag  1:
 RMSU=  6.32D-05    CP:  9.93D-01  1.38D+00  8.12D-01  6.11D-01
 E= -2048.67732449655     Delta-E=       -0.007526223775 Rises=F Damp=F
 DIIS: error= 6.17D-04 at cycle   5 NSaved=   5.
 NSaved= 5 IEnMin= 5 EnMin= -2048.67732449655     IErMin= 5 ErrMin= 6.17D-04
 ErrMax= 6.17D-04  0.00D+00 EMaxC= 1.00D-01 BMatC= 3.14D-04 BMatP= 9.08D-03
 IDIUse=3 WtCom= 9.94D-01 WtEn= 6.17D-03
 Coeff-Com: -0.253D-01 0.434D-01 0.124D+00 0.243D+00 0.615D+00
 Coeff-En:   0.000D+00 0.000D+00 0.000D+00 0.000D+00 0.100D+01
 Coeff:     -0.251D-01 0.431D-01 0.123D+00 0.242D+00 0.617D+00
 Gap=     0.282 Goal=   None    Shift=    0.000
 RMSDP=2.81D-05 MaxDP=1.82D-03 DE=-7.53D-03 OVMax= 3.71D-03

 Failed to achieve initial convergence to 1.0D-08 in  6 cycles.
 Switch to full accuracy anyway.
 Cycle   6  Pass 1  IDiag  1:
 E= -2048.67763192449     Delta-E=       -0.000307427938 Rises=F Damp=F
 DIIS: error= 2.23D-04 at cycle   1 NSaved=   1.
 NSaved= 1 IEnMin= 1 EnMin= -2048.67763192449     IErMin= 1 ErrMin= 2.23D-04
 ErrMax= 2.23D-04  0.00D+00 EMaxC= 1.00D-01 BMatC= 7.51D-05 BMatP= 7.51D-05
 IDIUse=3 WtCom= 9.98D-01 WtEn= 2.23D-03
 Coeff-Com:  0.100D+01
 Coeff-En:   0.100D+01
 Coeff:      0.100D+01
 Gap=     0.281 Goal=   None    Shift=    0.000
 RMSDP=2.81D-05 MaxDP=1.82D-03 DE=-3.07D-04 OVMax= 2.25D-03

 Cycle   7  Pass 1  IDiag  1:
 RMSU=  1.07D-04    CP:  1.00D+00
 E= -2048.67768312125     Delta-E=       -0.000051196764 Rises=F Damp=F
 DIIS: error= 2.07D-04 at cycle   2 NSaved=   2.
 NSaved= 2 IEnMin= 2 EnMin= -2048.67768312125     IErMin= 2 ErrMin= 2.07D-04
 ErrMax= 2.07D-04  0.00D+00 EMaxC= 1.00D-01 BMatC= 4.78D-05 BMatP= 7.51D-05
 IDIUse=3 WtCom= 9.98D-01 WtEn= 2.07D-03
 Coeff-Com:  0.425D+00 0.575D+00
 Coeff-En:   0.425D-01 0.958D+00
 Coeff:      0.424D+00 0.576D+00
 Gap=     0.282 Goal=   None    Shift=    0.000
 RMSDP=1.23D-05 MaxDP=9.80D-04 DE=-5.12D-05 OVMax= 1.69D-03

 Cycle   8  Pass 1  IDiag  1:
 RMSU=  1.21D-05    CP:  1.00D+00  1.02D+00
 E= -2048.67771875279     Delta-E=       -0.000035631540 Rises=F Damp=F
 DIIS: error= 9.05D-05 at cycle   3 NSaved=   3.
 NSaved= 3 IEnMin= 3 EnMin= -2048.67771875279     IErMin= 3 ErrMin= 9.05D-05
 ErrMax= 9.05D-05  0.00D+00 EMaxC= 1.00D-01 BMatC= 9.90D-06 BMatP= 4.78D-05
 IDIUse=1 WtCom= 1.00D+00 WtEn= 0.00D+00
 Coeff-Com: -0.182D-01 0.298D+00 0.720D+00
 Coeff:     -0.182D-01 0.298D+00 0.720D+00
 Gap=     0.281 Goal=   None    Shift=    0.000
 RMSDP=5.79D-06 MaxDP=3.77D-04 DE=-3.56D-05 OVMax= 7.00D-04

 Cycle   9  Pass 1  IDiag  1:
 RMSU=  3.94D-06    CP:  1.00D+00  1.05D+00  7.70D-01
 E= -2048.67772833662     Delta-E=       -0.000009583825 Rises=F Damp=F
 DIIS: error= 3.40D-05 at cycle   4 NSaved=   4.
 NSaved= 4 IEnMin= 4 EnMin= -2048.67772833662     IErMin= 4 ErrMin= 3.40D-05
 ErrMax= 3.40D-05  0.00D+00 EMaxC= 1.00D-01 BMatC= 5.58D-07 BMatP= 9.90D-06
 IDIUse=1 WtCom= 1.00D+00 WtEn= 0.00D+00
 Coeff-Com: -0.326D-01 0.830D-01 0.276D+00 0.674D+00
 Coeff:     -0.326D-01 0.830D-01 0.276D+00 0.674D+00
 Gap=     0.281 Goal=   None    Shift=    0.000
 RMSDP=1.49D-06 MaxDP=1.20D-04 DE=-9.58D-06 OVMax= 4.31D-04

 Cycle  10  Pass 1  IDiag  1:
 RMSU=  1.33D-06    CP:  1.00D+00  1.05D+00  8.05D-01  1.10D+00
 E= -2048.67772924114     Delta-E=       -0.000000904524 Rises=F Damp=F
 DIIS: error= 1.49D-05 at cycle   5 NSaved=   5.
 NSaved= 5 IEnMin= 5 EnMin= -2048.67772924114     IErMin= 5 ErrMin= 1.49D-05
 ErrMax= 1.49D-05  0.00D+00 EMaxC= 1.00D-01 BMatC= 1.19D-07 BMatP= 5.58D-07
 IDIUse=1 WtCom= 1.00D+00 WtEn= 0.00D+00
 Coeff-Com: -0.372D-02-0.527D-01-0.118D+00 0.192D+00 0.982D+00
 Coeff:     -0.372D-02-0.527D-01-0.118D+00 0.192D+00 0.982D+00
 Gap=     0.281 Goal=   None    Shift=    0.000
 RMSDP=1.23D-06 MaxDP=7.55D-05 DE=-9.05D-07 OVMax= 2.33D-04

 Cycle  11  Pass 1  IDiag  1:
 RMSU=  4.95D-07    CP:  1.00D+00  1.05D+00  8.13D-01  1.37D+00  1.19D+00
 E= -2048.67772951106     Delta-E=       -0.000000269922 Rises=F Damp=F
 DIIS: error= 9.55D-06 at cycle   6 NSaved=   6.
 NSaved= 6 IEnMin= 6 EnMin= -2048.67772951106     IErMin= 6 ErrMin= 9.55D-06
 ErrMax= 9.55D-06  0.00D+00 EMaxC= 1.00D-01 BMatC= 3.06D-08 BMatP= 1.19D-07
 IDIUse=1 WtCom= 1.00D+00 WtEn= 0.00D+00
 Coeff-Com:  0.471D-02-0.435D-01-0.117D+00-0.971D-02 0.530D+00 0.635D+00
 Coeff:      0.471D-02-0.435D-01-0.117D+00-0.971D-02 0.530D+00 0.635D+00
 Gap=     0.281 Goal=   None    Shift=    0.000
 RMSDP=3.89D-07 MaxDP=3.30D-05 DE=-2.70D-07 OVMax= 1.09D-04

 Cycle  12  Pass 1  IDiag  1:
 RMSU=  1.91D-07    CP:  1.00D+00  1.05D+00  8.16D-01  1.44D+00  1.32D+00
                    CP:  9.25D-01
 E= -2048.67772955460     Delta-E=       -0.000000043537 Rises=F Damp=F
 DIIS: error= 1.29D-06 at cycle   7 NSaved=   7.
 NSaved= 7 IEnMin= 7 EnMin= -2048.67772955460     IErMin= 7 ErrMin= 1.29D-06
 ErrMax= 1.29D-06  0.00D+00 EMaxC= 1.00D-01 BMatC= 7.12D-10 BMatP= 3.06D-08
 IDIUse=1 WtCom= 1.00D+00 WtEn= 0.00D+00
 Coeff-Com:  0.105D-02-0.637D-02-0.186D-01-0.922D-02 0.540D-01 0.123D+00
 Coeff-Com:  0.856D+00
 Coeff:      0.105D-02-0.637D-02-0.186D-01-0.922D-02 0.540D-01 0.123D+00
 Coeff:      0.856D+00
 Gap=     0.281 Goal=   None    Shift=    0.000
 RMSDP=8.58D-08 MaxDP=5.72D-06 DE=-4.35D-08 OVMax= 2.19D-05

 Cycle  13  Pass 1  IDiag  1:
 RMSU=  5.38D-08    CP:  1.00D+00  1.05D+00  8.15D-01  1.45D+00  1.34D+00
                    CP:  1.01D+00  1.14D+00
 E= -2048.67772955618     Delta-E=       -0.000000001584 Rises=F Damp=F
 DIIS: error= 5.38D-07 at cycle   8 NSaved=   8.
 NSaved= 8 IEnMin= 8 EnMin= -2048.67772955618     IErMin= 8 ErrMin= 5.38D-07
 ErrMax= 5.38D-07  0.00D+00 EMaxC= 1.00D-01 BMatC= 3.56D-10 BMatP= 7.12D-10
 IDIUse=1 WtCom= 1.00D+00 WtEn= 0.00D+00
 Coeff-Com: -0.707D-03 0.839D-02 0.215D-01-0.110D-02-0.113D+00-0.108D+00
 Coeff-Com:  0.436D+00 0.757D+00
 Coeff:     -0.707D-03 0.839D-02 0.215D-01-0.110D-02-0.113D+00-0.108D+00
 Coeff:      0.436D+00 0.757D+00
 Gap=     0.281 Goal=   None    Shift=    0.000
 RMSDP=5.06D-08 MaxDP=3.35D-06 DE=-1.58D-09 OVMax= 8.85D-06

 Cycle  14  Pass 1  IDiag  1:
 RMSU=  2.90D-08    CP:  1.00D+00  1.05D+00  8.15D-01  1.46D+00  1.35D+00
                    CP:  1.05D+00  1.30D+00  1.05D+00
 E= -2048.67772955703     Delta-E=       -0.000000000851 Rises=F Damp=F
 DIIS: error= 2.48D-07 at cycle   9 NSaved=   9.
 NSaved= 9 IEnMin= 9 EnMin= -2048.67772955703     IErMin= 9 ErrMin= 2.48D-07
 ErrMax= 2.48D-07  0.00D+00 EMaxC= 1.00D-01 BMatC= 3.80D-11 BMatP= 3.56D-10
 IDIUse=1 WtCom= 1.00D+00 WtEn= 0.00D+00
 Coeff-Com: -0.443D-03 0.457D-02 0.119D-01 0.942D-03-0.563D-01-0.623D-01
 Coeff-Com:  0.109D+00 0.329D+00 0.663D+00
 Coeff:     -0.443D-03 0.457D-02 0.119D-01 0.942D-03-0.563D-01-0.623D-01
 Coeff:      0.109D+00 0.329D+00 0.663D+00
 Gap=     0.281 Goal=   None    Shift=    0.000
 RMSDP=1.38D-08 MaxDP=9.98D-07 DE=-8.51D-10 OVMax= 2.81D-06

 Cycle  15  Pass 1  IDiag  1:
 RMSU=  9.85D-09    CP:  1.00D+00  1.05D+00  8.15D-01  1.46D+00  1.35D+00
                    CP:  1.06D+00  1.32D+00  1.19D+00  1.06D+00
 E= -2048.67772955694     Delta-E=        0.000000000095 Rises=F Damp=F
 DIIS: error= 1.11D-07 at cycle  10 NSaved=  10.
 NSaved=10 IEnMin= 9 EnMin= -2048.67772955703     IErMin=10 ErrMin= 1.11D-07
 ErrMax= 1.11D-07  0.00D+00 EMaxC= 1.00D-01 BMatC= 6.15D-12 BMatP= 3.80D-11
 IDIUse=1 WtCom= 1.00D+00 WtEn= 0.00D+00
 Coeff-Com: -0.496D-05-0.202D-03-0.442D-03 0.210D-03 0.414D-02 0.860D-04
 Coeff-Com: -0.569D-01-0.548D-01 0.248D+00 0.860D+00
 Coeff:     -0.496D-05-0.202D-03-0.442D-03 0.210D-03 0.414D-02 0.860D-04
 Coeff:     -0.569D-01-0.548D-01 0.248D+00 0.860D+00
 Gap=     0.281 Goal=   None    Shift=    0.000
 RMSDP=7.89D-09 MaxDP=4.04D-07 DE= 9.46D-11 OVMax= 1.46D-06

 SCF Done:  E(RwB97XD) =  -2048.67772956     A.U. after   15 cycles
            NFock= 15  Conv=0.79D-08     -V/T= 2.0052
 KE= 2.038128821461D+03 PE=-1.571017495881D+04 EE= 6.158719061400D+03
 Leave Link  502 at Tue Jan 23 18:37:44 2018, MaxMem=  4294967296 cpu:           20933.0 elap:             678.7
 (Enter /share/apps/g16/l601.exe)
 Copying SCF densities to generalized density rwf, IOpCl= 0 IROHF=0.

 **********************************************************************

            Population analysis using the SCF density.

 **********************************************************************

 Orbital symmetries:
       Occupied  (A) (A) (A) (A) (A) (A) (A) (A) (A) (A) (A) (A)
                 (A) (A) (A) (A) (A) (A) (A) (A) (A) (A) (A) (A)
                 (A) (A) (A) (A) (A) (A) (A) (A) (A) (A) (A) (A)
                 (A) (A) (A) (A) (A) (A) (A) (A) (A) (A) (A) (A)
                 (A) (A) (A) (A) (A) (A) (A) (A) (A) (A) (A) (A)
                 (A) (A) (A) (A) (A) (A) (A) (A) (A) (A) (A) (A)
                 (A) (A) (A) (A) (A) (A) (A) (A) (A) (A) (A) (A)
                 (A) (A) (A) (A) (A) (A) (A) (A) (A) (A) (A) (A)
                 (A) (A) (A) (A) (A) (A) (A) (A) (A) (A) (A) (A)
                 (A) (A) (A) (A) (A) (A) (A) (A) (A) (A) (A) (A)
                 (A) (A) (A) (A) (A) (A) (A) (A) (A) (A) (A) (A)
                 (A) (A) (A) (A) (A) (A) (A) (A) (A) (A) (A) (A)
                 (A) (A) (A) (A) (A) (A) (A) (A) (A) (A)
       Virtual   (A) (A) (A) (A) (A) (A) (A) (A) (A) (A) (A) (A)
                 (A) (A) (A) (A) (A) (A) (A) (A) (A) (A) (A) (A)
                 (A) (A) (A) (A) (A) (A) (A) (A) (A) (A) (A) (A)
                 (A) (A) (A) (A) (A) (A) (A) (A) (A) (A) (A) (A)
                 (A) (A) (A) (A) (A) (A) (A) (A) (A) (A) (A) (A)
                 (A) (A) (A) (A) (A) (A) (A) (A) (A) (A) (A) (A)
                 (A) (A) (A) (A) (A) (A) (A) (A) (A) (A) (A) (A)
                 (A) (A) (A) (A) (A) (A) (A) (A) (A) (A) (A) (A)
                 (A) (A) (A) (A) (A) (A) (A) (A) (A) (A) (A) (A)
                 (A) (A) (A) (A) (A) (A) (A) (A) (A) (A) (A) (A)
                 (A) (A) (A) (A) (A) (A) (A) (A) (A) (A) (A) (A)
                 (A) (A) (A) (A) (A) (A) (A) (A) (A) (A) (A) (A)
                 (A) (A) (A) (A) (A) (A) (A) (A) (A) (A) (A) (A)
                 (A) (A) (A) (A) (A) (A) (A) (A) (A) (A) (A) (A)
                 (A) (A) (A) (A) (A) (A) (A) (A) (A) (A) (A) (A)
                 (A) (A) (A) (A) (A) (A) (A) (A) (A) (A) (A) (A)
                 (A) (A) (A) (A) (A) (A) (A) (A) (A) (A) (A) (A)
                 (A) (A) (A) (A) (A) (A) (A) (A) (A) (A) (A) (A)
                 (A) (A) (A) (A) (A) (A) (A) (A) (A) (A) (A) (A)
                 (A) (A) (A) (A) (A) (A) (A) (A) (A) (A) (A) (A)
                 (A) (A) (A) (A) (A) (A) (A) (A) (A) (A) (A) (A)
                 (A) (A) (A) (A) (A) (A) (A) (A) (A) (A) (A) (A)
                 (A) (A) (A) (A) (A) (A) (A) (A) (A) (A) (A) (A)
                 (A) (A) (A) (A) (A) (A) (A) (A) (A) (A) (A) (A)
                 (A) (A) (A) (A) (A) (A) (A) (A) (A) (A) (A) (A)
                 (A) (A) (A) (A) (A) (A) (A) (A) (A) (A) (A) (A)
                 (A) (A) (A) (A) (A) (A) (A) (A) (A) (A) (A) (A)
                 (A) (A) (A) (A) (A) (A) (A) (A) (A) (A) (A) (A)
                 (A) (A) (A) (A) (A) (A) (A) (A) (A) (A) (A) (A)
                 (A) (A) (A) (A) (A) (A) (A) (A) (A) (A) (A) (A)
                 (A) (A) (A) (A) (A) (A) (A) (A) (A) (A) (A) (A)
                 (A) (A) (A) (A) (A) (A) (A) (A) (A) (A) (A) (A)
                 (A) (A) (A) (A) (A) (A) (A) (A) (A) (A) (A) (A)
                 (A) (A) (A) (A) (A) (A) (A) (A) (A) (A) (A) (A)
                 (A) (A) (A) (A) (A) (A) (A) (A) (A) (A) (A) (A)
                 (A) (A) (A) (A) (A) (A) (A) (A) (A) (A) (A) (A)
                 (A) (A) (A) (A) (A) (A) (A) (A) (A) (A) (A) (A)
                 (A) (A) (A) (A) (A) (A) (A) (A) (A) (A) (A) (A)
                 (A) (A) (A) (A) (A) (A) (A) (A) (A) (A) (A) (A)
                 (A) (A) (A) (A) (A) (A) (A) (A) (A) (A) (A) (A)
                 (A) (A) (A) (A) (A) (A) (A) (A) (A) (A) (A) (A)
                 (A) (A) (A) (A) (A) (A) (A) (A) (A) (A) (A) (A)
                 (A) (A) (A) (A) (A) (A) (A) (A) (A) (A) (A) (A)
                 (A) (A) (A) (A) (A) (A) (A) (A) (A) (A) (A) (A)
                 (A) (A) (A) (A) (A) (A) (A) (A) (A) (A) (A) (A)
                 (A) (A) (A) (A) (A) (A) (A) (A) (A) (A) (A) (A)
                 (A) (A) (A) (A) (A) (A) (A) (A) (A) (A) (A) (A)
                 (A) (A) (A) (A) (A) (A) (A) (A) (A) (A) (A) (A)
                 (A) (A) (A) (A) (A) (A) (A)
 The electronic state is 1-A.
 Alpha  occ. eigenvalues --  -19.25938 -19.22016 -19.20575 -14.52484 -14.51716
 Alpha  occ. eigenvalues --  -14.49358 -14.48767 -14.47933 -14.46950 -14.46856
 Alpha  occ. eigenvalues --  -14.46424 -14.44516 -14.42977 -14.42757 -14.42449
 Alpha  occ. eigenvalues --  -14.42053 -14.41700 -14.41568 -14.40777 -14.40774
 Alpha  occ. eigenvalues --  -10.45563 -10.41359 -10.40142 -10.38722 -10.38206
 Alpha  occ. eigenvalues --  -10.37821 -10.37148 -10.36031 -10.35961 -10.35445
 Alpha  occ. eigenvalues --  -10.34703 -10.34329 -10.34307 -10.34010 -10.33765
 Alpha  occ. eigenvalues --  -10.33390 -10.33346 -10.31566 -10.31401 -10.31121
 Alpha  occ. eigenvalues --  -10.30836 -10.29199 -10.28222  -1.19491  -1.14639
 Alpha  occ. eigenvalues --   -1.13244  -1.13043  -1.11967  -1.10621  -1.09372
 Alpha  occ. eigenvalues --   -1.09015  -1.08064  -1.05613  -1.03608  -1.02555
 Alpha  occ. eigenvalues --   -1.01452  -1.01046  -0.99438  -0.98492  -0.97550
 Alpha  occ. eigenvalues --   -0.96586  -0.95675  -0.93260  -0.91090  -0.87080
 Alpha  occ. eigenvalues --   -0.85577  -0.84533  -0.84067  -0.83773  -0.82871
 Alpha  occ. eigenvalues --   -0.82543  -0.78921  -0.76068  -0.74788  -0.74197
 Alpha  occ. eigenvalues --   -0.73751  -0.73515  -0.73416  -0.71696  -0.69518
 Alpha  occ. eigenvalues --   -0.67955  -0.66898  -0.66633  -0.65942  -0.64549
 Alpha  occ. eigenvalues --   -0.63947  -0.63675  -0.63278  -0.62896  -0.62588
 Alpha  occ. eigenvalues --   -0.60783  -0.60039  -0.59855  -0.59596  -0.59524
 Alpha  occ. eigenvalues --   -0.59024  -0.58575  -0.57106  -0.56913  -0.56851
 Alpha  occ. eigenvalues --   -0.56052  -0.55912  -0.55315  -0.54555  -0.54266
 Alpha  occ. eigenvalues --   -0.53701  -0.53420  -0.53236  -0.52707  -0.52581
 Alpha  occ. eigenvalues --   -0.52260  -0.52198  -0.51939  -0.51322  -0.50752
 Alpha  occ. eigenvalues --   -0.50154  -0.49675  -0.49481  -0.49023  -0.48815
 Alpha  occ. eigenvalues --   -0.48582  -0.48318  -0.48026  -0.47594  -0.47519
 Alpha  occ. eigenvalues --   -0.47417  -0.45661  -0.45388  -0.44045  -0.42580
 Alpha  occ. eigenvalues --   -0.41816  -0.39602  -0.39412  -0.37824  -0.37569
 Alpha  occ. eigenvalues --   -0.37205  -0.36570  -0.36293  -0.35818  -0.35097
 Alpha  occ. eigenvalues --   -0.34150  -0.34059  -0.33229  -0.33159  -0.32763
 Alpha  occ. eigenvalues --   -0.32492  -0.32078  -0.31967  -0.31842  -0.31546
 Alpha  occ. eigenvalues --   -0.30978  -0.28683  -0.26413  -0.25048
 Alpha virt. eigenvalues --    0.03096   0.04706   0.07255   0.07651   0.08306
 Alpha virt. eigenvalues --    0.09391   0.09792   0.10316   0.11006   0.12460
 Alpha virt. eigenvalues --    0.12771   0.13548   0.14238   0.14552   0.14745
 Alpha virt. eigenvalues --    0.15790   0.16119   0.16514   0.16861   0.18139
 Alpha virt. eigenvalues --    0.18796   0.19341   0.19473   0.20020   0.20328
 Alpha virt. eigenvalues --    0.20757   0.20949   0.21180   0.21323   0.22029
 Alpha virt. eigenvalues --    0.23098   0.23308   0.23468   0.23628   0.23839
 Alpha virt. eigenvalues --    0.24066   0.24123   0.24558   0.25468   0.25664
 Alpha virt. eigenvalues --    0.25969   0.26666   0.27775   0.28140   0.28271
 Alpha virt. eigenvalues --    0.29262   0.29685   0.30123   0.30716   0.31079
 Alpha virt. eigenvalues --    0.31300   0.31838   0.32669   0.33094   0.33840
 Alpha virt. eigenvalues --    0.34238   0.34893   0.35150   0.35879   0.36746
 Alpha virt. eigenvalues --    0.37171   0.37961   0.38418   0.39519   0.39982
 Alpha virt. eigenvalues --    0.40567   0.40835   0.41035   0.41355   0.41835
 Alpha virt. eigenvalues --    0.42197   0.42860   0.43566   0.43818   0.44965
 Alpha virt. eigenvalues --    0.45435   0.45497   0.46069   0.46241   0.47349
 Alpha virt. eigenvalues --    0.47711   0.48182   0.48810   0.49337   0.49759
 Alpha virt. eigenvalues --    0.50413   0.50642   0.51002   0.51355   0.51954
 Alpha virt. eigenvalues --    0.52053   0.52128   0.52833   0.53396   0.54016
 Alpha virt. eigenvalues --    0.54173   0.54376   0.54648   0.55457   0.55732
 Alpha virt. eigenvalues --    0.56211   0.56839   0.57329   0.57781   0.58219
 Alpha virt. eigenvalues --    0.58668   0.59072   0.59168   0.59346   0.59830
 Alpha virt. eigenvalues --    0.60174   0.60629   0.61254   0.61463   0.61747
 Alpha virt. eigenvalues --    0.62179   0.62371   0.62735   0.62983   0.63484
 Alpha virt. eigenvalues --    0.64165   0.64443   0.64836   0.65130   0.65328
 Alpha virt. eigenvalues --    0.65459   0.66081   0.66458   0.66823   0.67349
 Alpha virt. eigenvalues --    0.67646   0.68163   0.68417   0.68761   0.68896
 Alpha virt. eigenvalues --    0.69590   0.69952   0.70089   0.70960   0.71186
 Alpha virt. eigenvalues --    0.71805   0.72453   0.73280   0.73491   0.74002
 Alpha virt. eigenvalues --    0.74395   0.74600   0.74814   0.75076   0.75449
 Alpha virt. eigenvalues --    0.75761   0.76121   0.76367   0.76473   0.77107
 Alpha virt. eigenvalues --    0.77362   0.77399   0.78108   0.78608   0.79004
 Alpha virt. eigenvalues --    0.79586   0.79738   0.80021   0.80462   0.80633
 Alpha virt. eigenvalues --    0.81307   0.81510   0.82396   0.82912   0.83173
 Alpha virt. eigenvalues --    0.83499   0.83781   0.83893   0.84419   0.84711
 Alpha virt. eigenvalues --    0.85495   0.85710   0.86027   0.86558   0.87337
 Alpha virt. eigenvalues --    0.87804   0.88413   0.88700   0.89233   0.89814
 Alpha virt. eigenvalues --    0.90026   0.90549   0.91027   0.91455   0.91896
 Alpha virt. eigenvalues --    0.92129   0.92651   0.93572   0.93803   0.94235
 Alpha virt. eigenvalues --    0.94902   0.95169   0.95370   0.95631   0.96286
 Alpha virt. eigenvalues --    0.96696   0.96875   0.97531   0.97981   0.98489
 Alpha virt. eigenvalues --    0.98756   0.99830   0.99864   1.01226   1.01808
 Alpha virt. eigenvalues --    1.01887   1.02136   1.02261   1.03336   1.03889
 Alpha virt. eigenvalues --    1.03968   1.05058   1.05360   1.05635   1.06164
 Alpha virt. eigenvalues --    1.06372   1.06824   1.07522   1.08773   1.08946
 Alpha virt. eigenvalues --    1.09189   1.10191   1.10426   1.11500   1.11926
 Alpha virt. eigenvalues --    1.12137   1.12989   1.13340   1.13838   1.14153
 Alpha virt. eigenvalues --    1.14563   1.14737   1.15237   1.15818   1.16297
 Alpha virt. eigenvalues --    1.16706   1.17302   1.17512   1.17878   1.18618
 Alpha virt. eigenvalues --    1.19014   1.19130   1.19412   1.19543   1.20622
 Alpha virt. eigenvalues --    1.21116   1.21302   1.21802   1.21907   1.22212
 Alpha virt. eigenvalues --    1.22639   1.22837   1.23044   1.23347   1.24503
 Alpha virt. eigenvalues --    1.24572   1.25383   1.25519   1.26545   1.26945
 Alpha virt. eigenvalues --    1.27696   1.28096   1.28447   1.28940   1.29179
 Alpha virt. eigenvalues --    1.29703   1.30460   1.31079   1.31561   1.31962
 Alpha virt. eigenvalues --    1.32736   1.33529   1.34164   1.34459   1.35067
 Alpha virt. eigenvalues --    1.36154   1.36868   1.37049   1.38073   1.38377
 Alpha virt. eigenvalues --    1.39020   1.39162   1.40204   1.41571   1.42573
 Alpha virt. eigenvalues --    1.44051   1.44523   1.44796   1.45312   1.46132
 Alpha virt. eigenvalues --    1.47215   1.47818   1.47841   1.48087   1.48538
 Alpha virt. eigenvalues --    1.48646   1.49163   1.49951   1.51127   1.51555
 Alpha virt. eigenvalues --    1.52590   1.53139   1.53916   1.54743   1.55674
 Alpha virt. eigenvalues --    1.55712   1.56377   1.57795   1.58763   1.58949
 Alpha virt. eigenvalues --    1.59172   1.59686   1.60263   1.60915   1.61662
 Alpha virt. eigenvalues --    1.61851   1.62799   1.63303   1.63525   1.64496
 Alpha virt. eigenvalues --    1.64913   1.65885   1.66599   1.66909   1.67306
 Alpha virt. eigenvalues --    1.67446   1.68211   1.68782   1.69182   1.69459
 Alpha virt. eigenvalues --    1.69569   1.69949   1.70355   1.70717   1.71781
 Alpha virt. eigenvalues --    1.72028   1.72366   1.72481   1.73477   1.73937
 Alpha virt. eigenvalues --    1.74300   1.74646   1.75018   1.75163   1.75595
 Alpha virt. eigenvalues --    1.75955   1.76556   1.76910   1.77064   1.77490
 Alpha virt. eigenvalues --    1.77908   1.78617   1.79353   1.79406   1.79597
 Alpha virt. eigenvalues --    1.79830   1.79953   1.80201   1.80746   1.81041
 Alpha virt. eigenvalues --    1.81389   1.81959   1.82466   1.82768   1.82952
 Alpha virt. eigenvalues --    1.83302   1.83651   1.84926   1.85429   1.85557
 Alpha virt. eigenvalues --    1.85987   1.86759   1.87224   1.87734   1.88015
 Alpha virt. eigenvalues --    1.88211   1.88388   1.88471   1.89026   1.89465
 Alpha virt. eigenvalues --    1.89960   1.90905   1.91247   1.91877   1.92621
 Alpha virt. eigenvalues --    1.92910   1.93354   1.93944   1.94637   1.94921
 Alpha virt. eigenvalues --    1.95438   1.96180   1.97021   1.97564   1.98819
 Alpha virt. eigenvalues --    1.99368   1.99795   2.00629   2.01229   2.01734
 Alpha virt. eigenvalues --    2.02000   2.03095   2.03638   2.05205   2.05378
 Alpha virt. eigenvalues --    2.05970   2.06141   2.06942   2.07476   2.08115
 Alpha virt. eigenvalues --    2.08337   2.08407   2.09550   2.09803   2.10350
 Alpha virt. eigenvalues --    2.10814   2.11936   2.13095   2.13427   2.13811
 Alpha virt. eigenvalues --    2.14738   2.16771   2.16972   2.18147   2.18482
 Alpha virt. eigenvalues --    2.18896   2.19594   2.20007   2.20704   2.21464
 Alpha virt. eigenvalues --    2.22531   2.22900   2.23692   2.24105   2.24808
 Alpha virt. eigenvalues --    2.25373   2.25863   2.27411   2.28030   2.28508
 Alpha virt. eigenvalues --    2.28792   2.29092   2.29273   2.29619   2.30250
 Alpha virt. eigenvalues --    2.30826   2.31586   2.32195   2.33028   2.33368
 Alpha virt. eigenvalues --    2.34019   2.34193   2.34800   2.35253   2.35538
 Alpha virt. eigenvalues --    2.35849   2.36958   2.37494   2.37620   2.38712
 Alpha virt. eigenvalues --    2.39299   2.40193   2.40830   2.41032   2.41856
 Alpha virt. eigenvalues --    2.42793   2.42965   2.43310   2.43838   2.44368
 Alpha virt. eigenvalues --    2.45410   2.46267   2.46808   2.46950   2.47143
 Alpha virt. eigenvalues --    2.48737   2.49316   2.50045   2.52627   2.52653
 Alpha virt. eigenvalues --    2.53490   2.54465   2.55000   2.56198   2.57004
 Alpha virt. eigenvalues --    2.57415   2.58894   2.59803   2.59953   2.60413
 Alpha virt. eigenvalues --    2.60849   2.61543   2.61972   2.62685   2.64294
 Alpha virt. eigenvalues --    2.64435   2.64819   2.65980   2.66563   2.67273
 Alpha virt. eigenvalues --    2.67776   2.68042   2.68424   2.69708   2.70141
 Alpha virt. eigenvalues --    2.70695   2.71195   2.72165   2.72996   2.74178
 Alpha virt. eigenvalues --    2.74713   2.75049   2.75297   2.75912   2.77651
 Alpha virt. eigenvalues --    2.78297   2.79018   2.79468   2.79654   2.80218
 Alpha virt. eigenvalues --    2.80314   2.80558   2.80766   2.82011   2.82407
 Alpha virt. eigenvalues --    2.82774   2.82904   2.83936   2.84102   2.84527
 Alpha virt. eigenvalues --    2.85890   2.86352   2.86824   2.87088   2.87237
 Alpha virt. eigenvalues --    2.88017   2.89767   2.90580   2.91836   2.93314
 Alpha virt. eigenvalues --    2.95383   2.96354   2.98321   2.98768   2.99029
 Alpha virt. eigenvalues --    2.99727   3.03040   3.04118   3.04926   3.06404
 Alpha virt. eigenvalues --    3.09387   3.10520   3.13203   3.14171   3.14671
 Alpha virt. eigenvalues --    3.15161   3.15610   3.16443   3.19224   3.21983
 Alpha virt. eigenvalues --    3.22472   3.23210   3.23266   3.26374   3.29589
 Alpha virt. eigenvalues --    3.46192   3.46808   3.48711   3.50234   3.50751
 Alpha virt. eigenvalues --    3.52951   3.53719   3.56434   3.59018   3.60159
 Alpha virt. eigenvalues --    3.62654   3.71284   3.74567
          Condensed to atoms (all electrons):
 Mulliken charges:
               1
     1  N   -0.311423
     2  C    0.180831
     3  C    0.032487
     4  N   -0.259328
     5  C    0.134866
     6  H    0.028618
     7  N   -0.285282
     8  C    0.121234
     9  H    0.013313
    10  N   -0.286771
    11  C    0.242297
    12  C    0.121800
    13  N   -0.055294
    14  H    0.107468
    15  H    0.088527
    16  H    0.026587
    17  H    0.035272
    18  H    0.027102
    19  N   -0.305546
    20  C    0.221015
    21  C    0.182825
    22  N   -0.100009
    23  H    0.120138
    24  H    0.110065
    25  N   -0.260465
    26  C    0.177280
    27  N   -0.099932
    28  H    0.118967
    29  C    0.144704
    30  O   -0.320353
    31  C   -0.003507
    32  N   -0.218675
    33  C    0.129792
    34  H    0.031389
    35  H    0.026521
    36  H    0.027510
    37  H    0.024840
    38  H    0.061065
    39  H    0.060299
    40  H    0.070756
    41  H    0.031699
    42  C   -0.112555
    43  O   -0.266379
    44  C    0.177360
    45  H    0.135122
    46  N   -0.139194
    47  O   -0.351289
    48  C    0.366927
    49  H    0.047887
    50  C    0.173975
    51  C    0.042644
    52  N   -0.296503
    53  H    0.019489
    54  H    0.040102
    55  H   -0.008949
    56  H    0.121583
    57  H    0.116013
    58  N   -0.064754
    59  C    0.116450
    60  C    0.218286
    61  N   -0.258742
    62  H    0.059427
    63  C    0.150387
    64  N   -0.297893
    65  H    0.027719
    66  C    0.129263
    67  N   -0.264038
    68  C    0.028660
    69  C    0.208651
    70  N   -0.312330
 Sum of Mulliken charges =  -0.00000
 Mulliken charges with hydrogens summed into heavy atoms:
               1
     1  N   -0.311423
     2  C    0.269791
     3  C    0.032487
     4  N   -0.259328
     5  C    0.163483
     7  N   -0.285282
     8  C    0.134547
    10  N   -0.286771
    11  C    0.242297
    12  C    0.121800
    13  N    0.140702
    19  N   -0.305546
    20  C    0.221015
    21  C    0.261695
    22  N    0.130194
    25  N   -0.260465
    26  C    0.177280
    27  N    0.019035
    29  C    0.144704
    30  O   -0.320353
    31  C   -0.003507
    32  N   -0.218675
    33  C    0.161181
    42  C   -0.080856
    43  O   -0.266379
    44  C    0.177360
    46  N   -0.004072
    47  O   -0.351289
    48  C    0.366927
    50  C    0.221862
    51  C    0.234765
    52  N   -0.296503
    58  N    0.172843
    59  C    0.116450
    60  C    0.218286
    61  N   -0.258742
    63  C    0.209813
    64  N   -0.297893
    66  C    0.156981
    67  N   -0.264038
    68  C    0.028660
    69  C    0.259292
    70  N   -0.312330
 Electronic spatial extent (au):  <R**2>=          24382.3559
 Charge=             -0.0000 electrons
 Dipole moment (field-independent basis, Debye):
    X=              7.1223    Y=              5.4765    Z=              3.2326  Tot=              9.5482
 Quadrupole moment (field-independent basis, Debye-Ang):
   XX=           -143.5869   YY=           -222.6701   ZZ=           -253.4664
   XY=              6.8448   XZ=             14.4928   YZ=            -11.1348
 Traceless Quadrupole moment (field-independent basis, Debye-Ang):
   XX=             62.9875   YY=            -16.0956   ZZ=            -46.8920
   XY=              6.8448   XZ=             14.4928   YZ=            -11.1348
 Octapole moment (field-independent basis, Debye-Ang**2):
  XXX=             36.8610  YYY=            122.7681  ZZZ=              0.5041  XYY=             63.7856
  XXY=            -86.0757  XXZ=            -59.5667  XZZ=              7.0751  YZZ=             22.8289
  YYZ=             54.7951  XYZ=             30.3581
 Hexadecapole moment (field-independent basis, Debye-Ang**3):
 XXXX=         -16060.0563 YYYY=          -5981.2954 ZZZZ=          -2911.0079 XXXY=            440.0381
 XXXZ=            268.3553 YYYX=             54.2894 YYYZ=           -127.6524 ZZZX=             28.6327
 ZZZY=            -19.0110 XXYY=          -4227.1843 XXZZ=          -4332.6496 YYZZ=          -1488.8987
 XXYZ=             87.5052 YYXZ=            232.8025 ZZXY=             14.9131
 N-N= 5.464649346389D+03 E-N=-1.571017494911D+04  KE= 2.038128821461D+03
 No NMR shielding tensors so no spin-rotation constants.
 Leave Link  601 at Tue Jan 23 18:37:46 2018, MaxMem=  4294967296 cpu:              49.3 elap:               1.7
 (Enter /share/apps/g16/l9999.exe)
 1\1\GINC-COMPUTE-0-3\SP\RwB97XD\CC-pVDZ\C23H27N17O3\SATYA\23-Jan-2018\
 0\\#p wb97xd/cc-pvdz sp scf=(maxcycles=20)\\Base pair stacking\\0,1\N,
 0,7.87731,5.05909,-7.71635\C,0,8.97368,6.03851,-7.84566\C,0,5.90936,4.
 12969,-7.39901\N,0,6.78544,3.09389,-7.68937\C,0,7.936,3.69527,-7.86894
 \H,0,8.86875,3.18788,-8.11685\N,0,3.96442,5.35245,-6.86513\C,0,4.7312,
 6.44666,-6.91348\H,0,4.21654,7.38453,-6.70902\N,0,6.03215,6.55578,-7.1
 7523\C,0,6.56792,5.34693,-7.41199\C,0,4.53321,4.15138,-7.10802\N,0,3.7
 6945,3.05797,-7.06022\H,0,4.1482,2.14812,-7.23327\H,0,2.79318,3.11096,
 -6.84991\H,0,9.35614,5.99283,-8.7686\H,0,8.6213,6.95858,-7.67709\H,0,9
 .68969,5.83036,-7.17933\N,0,3.05282,6.624,-3.42416\C,0,1.9059,5.87799,
 -3.2972\C,0,3.11426,8.09936,-3.43924\N,0,-1.54292,5.70313,-2.92735\H,0
 ,-2.24122,4.99221,-2.84857\H,0,-1.85682,6.65255,-2.89926\N,0,0.65248,6
 .36353,-3.16595\C,0,-0.24369,5.39802,-3.06454\N,0,0.06216,4.05886,-3.0
 8952\H,0,-0.68812,3.3903,-3.00542\C,0,1.34477,3.53659,-3.22368\O,0,1.5
 1252,2.31083,-3.23455\C,0,2.3183,4.56179,-3.33371\N,0,3.69638,4.48306,
 -3.48063\C,0,4.08802,5.72741,-3.5297\H,0,5.12417,6.04831,-3.64236\H,0,
 3.50819,8.4094,-4.30383\H,0,2.19157,8.47027,-3.34271\H,0,3.68174,8.418
 76,-2.68111\H,0,-4.92273,0.58189,-3.18877\H,0,-4.59464,0.34995,-1.4731
 9\H,0,-4.13271,1.85828,-2.26245\H,0,-1.43739,-2.72797,-3.39795\C,0,-1.
 54858,-1.65639,-3.23182\O,0,0.74385,-1.1741,-3.60502\C,0,-0.40042,-0.8
 0873,-3.3368\H,0,0.13582,1.15953,-3.17325\N,0,-0.65105,0.52921,-3.1079
 8\O,0,-1.98157,2.302,-2.61386\C,0,-1.85847,1.10404,-2.79936\H,0,-3.643
 32,-1.7263,-2.84066\C,0,-2.73965,-1.12517,-2.93222\C,0,-4.2281,0.79005
 ,-2.38863\N,0,-2.91759,0.22168,-2.7161\H,0,-3.7267,6.43154,-5.32746\H,
 0,-2.29051,6.64885,-4.58434\H,0,-3.51604,5.91649,-3.79326\H,0,0.85019,
 0.82557,-6.96777\H,0,-0.83572,0.6235,-6.80354\N,0,-0.03481,1.21672,-6.
 71494\C,0,-0.14323,2.47342,-6.27892\C,0,-1.31571,4.38268,-5.47783\N,0,
 -0.223,5.15633,-5.36892\H,0,1.79858,5.04058,-5.68582\C,0,0.86384,4.484
 52,-5.74356\N,0,0.9745,3.22581,-6.18057\H,0,-4.4481,3.60049,-5.309\C,0
 ,-3.36753,3.60941,-5.45467\N,0,-2.66612,2.59233,-5.89198\C,0,-1.36344,
 3.06918,-5.91141\C,0,-3.07352,6.0353,-4.68222\N,0,-2.61423,4.72571,-5.
 18424\\Version=EM64L-G16RevA.03\State=1-A\HF=-2048.6777296\RMSD=7.890e
 -09\Dipole=-3.5979375,1.044573,0.2748316\Quadrupole=36.352316,-9.56981
 79,-26.7824981,20.6567156,-21.2402316,6.5820152\PG=C01 [X(C23H27N17O3)
 ]\\@


 YOU KNOW YOU'RE A TEACHER WHEN YOU SAY 2, WRITE 3, AND MEAN 4.
 -- RONALD ANSTROM, HIGH SCHOOL TEACHER, UNDERWOOD, N.D. 1974
 Job cpu time:       0 days  5 hours 59 minutes  1.3 seconds.
 Elapsed time:       0 days  0 hours 11 minutes 38.1 seconds.
 File lengths (MBytes):  RWF=    298 Int=      0 D2E=      0 Chk=     33 Scr=      1
 Normal termination of Gaussian 16 at Tue Jan 23 18:37:47 2018.
