 Entering Gaussian System, Link 0=g16
 Input=str45.-15.-2.0.com
 Output=str45.-15.-2.0.log
 Initial command:
 /share/apps/g16/l1.exe "/state/partition1/scr/Gau-11841.inp" -scrdir="/state/partition1/scr/"
 Entering Link 1 = /share/apps/g16/l1.exe PID=     11842.
  
 Copyright (c) 1988,1990,1992,1993,1995,1998,2003,2009,2016,
            Gaussian, Inc.  All Rights Reserved.
  
 This is part of the Gaussian(R) 16 program.  It is based on
 the Gaussian(R) 09 system (copyright 2009, Gaussian, Inc.),
 the Gaussian(R) 03 system (copyright 2003, Gaussian, Inc.),
 the Gaussian(R) 98 system (copyright 1998, Gaussian, Inc.),
 the Gaussian(R) 94 system (copyright 1995, Gaussian, Inc.),
 the Gaussian 92(TM) system (copyright 1992, Gaussian, Inc.),
 the Gaussian 90(TM) system (copyright 1990, Gaussian, Inc.),
 the Gaussian 88(TM) system (copyright 1988, Gaussian, Inc.),
 the Gaussian 86(TM) system (copyright 1986, Carnegie Mellon
 University), and the Gaussian 82(TM) system (copyright 1983,
 Carnegie Mellon University). Gaussian is a federally registered
 trademark of Gaussian, Inc.
  
 This software contains proprietary and confidential information,
 including trade secrets, belonging to Gaussian, Inc.
  
 This software is provided under written license and may be
 used, copied, transmitted, or stored only in accord with that
 written license.
  
 The following legend is applicable only to US Government
 contracts under FAR:
  
                    RESTRICTED RIGHTS LEGEND
  
 Use, reproduction and disclosure by the US Government is
 subject to restrictions as set forth in subparagraphs (a)
 and (c) of the Commercial Computer Software - Restricted
 Rights clause in FAR 52.227-19.
  
 Gaussian, Inc.
 340 Quinnipiac St., Bldg. 40, Wallingford CT 06492
  
  
 ---------------------------------------------------------------
 Warning -- This program may not be used in any manner that
 competes with the business of Gaussian, Inc. or will provide
 assistance to any competitor of Gaussian, Inc.  The licensee
 of this program is prohibited from giving any competitor of
 Gaussian, Inc. access to this program.  By using this program,
 the user acknowledges that Gaussian, Inc. is engaged in the
 business of creating and licensing software in the field of
 computational chemistry and represents and warrants to the
 licensee that it is not a competitor of Gaussian, Inc. and that
 it will not use this program in any manner prohibited above.
 ---------------------------------------------------------------
  

 Cite this work as:
 Gaussian 16, Revision A.03,
 M. J. Frisch, G. W. Trucks, H. B. Schlegel, G. E. Scuseria, 
 M. A. Robb, J. R. Cheeseman, G. Scalmani, V. Barone, 
 G. A. Petersson, H. Nakatsuji, X. Li, M. Caricato, A. V. Marenich, 
 J. Bloino, B. G. Janesko, R. Gomperts, B. Mennucci, H. P. Hratchian, 
 J. V. Ortiz, A. F. Izmaylov, J. L. Sonnenberg, D. Williams-Young, 
 F. Ding, F. Lipparini, F. Egidi, J. Goings, B. Peng, A. Petrone, 
 T. Henderson, D. Ranasinghe, V. G. Zakrzewski, J. Gao, N. Rega, 
 G. Zheng, W. Liang, M. Hada, M. Ehara, K. Toyota, R. Fukuda, 
 J. Hasegawa, M. Ishida, T. Nakajima, Y. Honda, O. Kitao, H. Nakai, 
 T. Vreven, K. Throssell, J. A. Montgomery, Jr., J. E. Peralta, 
 F. Ogliaro, M. J. Bearpark, J. J. Heyd, E. N. Brothers, K. N. Kudin, 
 V. N. Staroverov, T. A. Keith, R. Kobayashi, J. Normand, 
 K. Raghavachari, A. P. Rendell, J. C. Burant, S. S. Iyengar, 
 J. Tomasi, M. Cossi, J. M. Millam, M. Klene, C. Adamo, R. Cammi, 
 J. W. Ochterski, R. L. Martin, K. Morokuma, O. Farkas, 
 J. B. Foresman, and D. J. Fox, Gaussian, Inc., Wallingford CT, 2016.
 
 ******************************************
 Gaussian 16:  EM64L-G16RevA.03 25-Dec-2016
                23-Jan-2018 
 ******************************************
 %nprocshared=32
 Will use up to   32 processors via shared memory.
 %mem=32GB
 %chk=allatoms_t.chk
 ---------------------------------------
 #p wb97xd/cc-pvdz sp scf=(maxcycles=20)
 ---------------------------------------
 1/38=1,172=1/1;
 2/12=2,17=6,18=5,40=1/2;
 3/5=16,11=2,25=1,30=1,74=-58/1,2,3;
 4//1;
 5/5=2,7=20,38=5/2;
 6/7=2,8=2,9=2,10=2,28=1/1;
 99/5=1,9=1/99;
 Leave Link    1 at Tue Jan 23 21:54:15 2018, MaxMem=  4294967296 cpu:               2.7 elap:               0.2
 (Enter /share/apps/g16/l101.exe)
 ------------------
 Base pair stacking
 ------------------
 Symbolic Z-matrix:
 Charge =  0 Multiplicity = 1
 N                     6.62345   4.62716  -8.10872 
 C                     7.72291   5.60098  -8.25312 
 C                     4.67828   3.69433  -7.68041 
 N                     5.49466   2.68361  -8.16693 
 C                     6.63388   3.28606  -8.4055 
 H                     7.52343   2.7957   -8.80197 
 N                     2.82907   4.8789   -6.82009 
 C                     3.612     5.96255  -6.83756 
 H                     3.14368   6.88032  -6.48453 
 N                     4.88062   6.08214  -7.22382 
 C                     5.3602    4.89798  -7.63879 
 C                     3.34102   3.70271  -7.24383 
 N                     2.56104   2.61988  -7.22714 
 H                     2.89818   1.72839  -7.53177 
 H                     1.61365   2.66282  -6.90975 
 H                     8.00553   5.64702  -9.21135 
 H                     7.41177   6.50278  -7.95469 
 H                     8.49964   5.31559  -7.69166 
 N                     2.71662   6.15372  -3.46973 
 C                     1.57903   5.40666  -3.28046 
 C                     2.78336   7.62871  -3.44423 
 N                    -1.83342   5.22797  -2.65996 
 H                    -2.52708   4.51648  -2.5511 
 H                    -2.14012   6.17675  -2.57952 
 N                     0.34103   5.89063  -3.04132 
 C                    -0.5494    4.92441  -2.90292 
 N                    -0.25224   3.58599  -2.99158 
 H                    -0.99715   2.9168   -2.87224 
 C                     1.01448   3.06532  -3.23692 
 O                     1.17548   1.84012  -3.29774 
 C                     1.98167   4.09131  -3.38785 
 N                     3.34462   4.01415  -3.63948 
 C                     3.73707   5.25857  -3.67954 
 H                     4.76338   5.58053  -3.8593 
 H                     3.11318   7.9644   -4.3259 
 H                     1.87208   7.99847  -3.26786 
 H                     3.40714   7.92336  -2.72112 
 H                    -5.24615   0.12458  -2.82507 
 H                    -4.79224  -0.16084  -1.14663 
 H                    -4.38365   1.37009  -1.92165 
 H                    -1.80088  -3.18482  -3.3947 
 C                    -1.8946   -2.11864  -3.18804 
 O                     0.36579  -1.63005  -3.71625 
 C                    -0.75368  -1.27064  -3.35239 
 H                    -0.19796   0.69047  -3.16918 
 N                    -0.98059   0.06015  -3.06472 
 O                    -2.26269   1.81975  -2.41877 
 C                    -2.1591    0.62781  -2.64948 
 H                    -3.95468  -2.19602  -2.64408 
 C                    -3.05767  -1.59432  -2.78435 
 C                    -4.49294   0.30647  -2.07297 
 N                    -3.213    -0.25439  -2.51448 
 H                    -4.63154   5.88754  -4.36972 
 H                    -3.12078   6.00827  -3.76546 
 H                    -4.27362   5.21274  -2.92751 
 H                    -0.38402   0.42656  -7.05333 
 H                    -2.04776   0.22949  -6.73204 
 N                    -1.2283    0.80021  -6.66898 
 C                    -1.26102   2.00585  -6.09755 
 C                    -2.29819   3.83564  -4.98494 
 N                    -1.18225   4.58004  -4.9144 
 H                     0.7918    4.47278  -5.45498 
 C                    -0.15662   3.93747  -5.46945 
 N                    -0.12182   2.7299   -6.0423 
 H                    -5.41318   3.07921  -4.56442 
 C                    -4.35387   3.0898   -4.82267 
 N                    -3.72609   2.1152   -5.434 
 C                    -2.42179   2.57521  -5.54313 
 C                    -3.92389   5.41807  -3.84167 
 N                    -3.55046   4.16235  -4.52116 
 
 ITRead=  0  0  0  0  0  0  0  0  0  0  0  0  0  0  0  0  0  0  0  0
 ITRead=  0  0  0  0  0  0  0  0  0  0  0  0  0  0  0  0  0  0  0  0
 ITRead=  0  0  0  0  0  0  0  0  0  0  0  0  0  0  0  0  0  0  0  0
 ITRead=  0  0  0  0  0  0  0  0  0  0
 MicOpt= -1 -1 -1 -1 -1 -1 -1 -1 -1 -1 -1 -1 -1 -1 -1 -1 -1 -1 -1 -1
 MicOpt= -1 -1 -1 -1 -1 -1 -1 -1 -1 -1 -1 -1 -1 -1 -1 -1 -1 -1 -1 -1
 MicOpt= -1 -1 -1 -1 -1 -1 -1 -1 -1 -1 -1 -1 -1 -1 -1 -1 -1 -1 -1 -1
 MicOpt= -1 -1 -1 -1 -1 -1 -1 -1 -1 -1
 NAtoms=     70 NQM=       70 NQMF=       0 NMMI=      0 NMMIF=      0
                NMic=       0 NMicF=      0.
                    Isotopes and Nuclear Properties:
 (Nuclear quadrupole moments (NQMom) in fm**2, nuclear magnetic moments (NMagM)
  in nuclear magnetons)

  Atom         1           2           3           4           5           6           7           8           9          10
 IAtWgt=          14          12          12          14          12           1          14          12           1          14
 AtmWgt=  14.0030740  12.0000000  12.0000000  14.0030740  12.0000000   1.0078250  14.0030740  12.0000000   1.0078250  14.0030740
 NucSpn=           2           0           0           2           0           1           2           0           1           2
 AtZEff=  -0.0000000  -0.0000000  -0.0000000  -0.0000000  -0.0000000  -0.0000000  -0.0000000  -0.0000000  -0.0000000  -0.0000000
 NQMom=    2.0440000   0.0000000   0.0000000   2.0440000   0.0000000   0.0000000   2.0440000   0.0000000   0.0000000   2.0440000
 NMagM=    0.4037610   0.0000000   0.0000000   0.4037610   0.0000000   2.7928460   0.4037610   0.0000000   2.7928460   0.4037610
 AtZNuc=   7.0000000   6.0000000   6.0000000   7.0000000   6.0000000   1.0000000   7.0000000   6.0000000   1.0000000   7.0000000

  Atom        11          12          13          14          15          16          17          18          19          20
 IAtWgt=          12          12          14           1           1           1           1           1          14          12
 AtmWgt=  12.0000000  12.0000000  14.0030740   1.0078250   1.0078250   1.0078250   1.0078250   1.0078250  14.0030740  12.0000000
 NucSpn=           0           0           2           1           1           1           1           1           2           0
 AtZEff=  -0.0000000  -0.0000000  -0.0000000  -0.0000000  -0.0000000  -0.0000000  -0.0000000  -0.0000000  -0.0000000  -0.0000000
 NQMom=    0.0000000   0.0000000   2.0440000   0.0000000   0.0000000   0.0000000   0.0000000   0.0000000   2.0440000   0.0000000
 NMagM=    0.0000000   0.0000000   0.4037610   2.7928460   2.7928460   2.7928460   2.7928460   2.7928460   0.4037610   0.0000000
 AtZNuc=   6.0000000   6.0000000   7.0000000   1.0000000   1.0000000   1.0000000   1.0000000   1.0000000   7.0000000   6.0000000

  Atom        21          22          23          24          25          26          27          28          29          30
 IAtWgt=          12          14           1           1          14          12          14           1          12          16
 AtmWgt=  12.0000000  14.0030740   1.0078250   1.0078250  14.0030740  12.0000000  14.0030740   1.0078250  12.0000000  15.9949146
 NucSpn=           0           2           1           1           2           0           2           1           0           0
 AtZEff=  -0.0000000  -0.0000000  -0.0000000  -0.0000000  -0.0000000  -0.0000000  -0.0000000  -0.0000000  -0.0000000  -0.0000000
 NQMom=    0.0000000   2.0440000   0.0000000   0.0000000   2.0440000   0.0000000   2.0440000   0.0000000   0.0000000   0.0000000
 NMagM=    0.0000000   0.4037610   2.7928460   2.7928460   0.4037610   0.0000000   0.4037610   2.7928460   0.0000000   0.0000000
 AtZNuc=   6.0000000   7.0000000   1.0000000   1.0000000   7.0000000   6.0000000   7.0000000   1.0000000   6.0000000   8.0000000

  Atom        31          32          33          34          35          36          37          38          39          40
 IAtWgt=          12          14          12           1           1           1           1           1           1           1
 AtmWgt=  12.0000000  14.0030740  12.0000000   1.0078250   1.0078250   1.0078250   1.0078250   1.0078250   1.0078250   1.0078250
 NucSpn=           0           2           0           1           1           1           1           1           1           1
 AtZEff=  -0.0000000  -0.0000000  -0.0000000  -0.0000000  -0.0000000  -0.0000000  -0.0000000  -0.0000000  -0.0000000  -0.0000000
 NQMom=    0.0000000   2.0440000   0.0000000   0.0000000   0.0000000   0.0000000   0.0000000   0.0000000   0.0000000   0.0000000
 NMagM=    0.0000000   0.4037610   0.0000000   2.7928460   2.7928460   2.7928460   2.7928460   2.7928460   2.7928460   2.7928460
 AtZNuc=   6.0000000   7.0000000   6.0000000   1.0000000   1.0000000   1.0000000   1.0000000   1.0000000   1.0000000   1.0000000

  Atom        41          42          43          44          45          46          47          48          49          50
 IAtWgt=           1          12          16          12           1          14          16          12           1          12
 AtmWgt=   1.0078250  12.0000000  15.9949146  12.0000000   1.0078250  14.0030740  15.9949146  12.0000000   1.0078250  12.0000000
 NucSpn=           1           0           0           0           1           2           0           0           1           0
 AtZEff=  -0.0000000  -0.0000000  -0.0000000  -0.0000000  -0.0000000  -0.0000000  -0.0000000  -0.0000000  -0.0000000  -0.0000000
 NQMom=    0.0000000   0.0000000   0.0000000   0.0000000   0.0000000   2.0440000   0.0000000   0.0000000   0.0000000   0.0000000
 NMagM=    2.7928460   0.0000000   0.0000000   0.0000000   2.7928460   0.4037610   0.0000000   0.0000000   2.7928460   0.0000000
 AtZNuc=   1.0000000   6.0000000   8.0000000   6.0000000   1.0000000   7.0000000   8.0000000   6.0000000   1.0000000   6.0000000

  Atom        51          52          53          54          55          56          57          58          59          60
 IAtWgt=          12          14           1           1           1           1           1          14          12          12
 AtmWgt=  12.0000000  14.0030740   1.0078250   1.0078250   1.0078250   1.0078250   1.0078250  14.0030740  12.0000000  12.0000000
 NucSpn=           0           2           1           1           1           1           1           2           0           0
 AtZEff=  -0.0000000  -0.0000000  -0.0000000  -0.0000000  -0.0000000  -0.0000000  -0.0000000  -0.0000000  -0.0000000  -0.0000000
 NQMom=    0.0000000   2.0440000   0.0000000   0.0000000   0.0000000   0.0000000   0.0000000   2.0440000   0.0000000   0.0000000
 NMagM=    0.0000000   0.4037610   2.7928460   2.7928460   2.7928460   2.7928460   2.7928460   0.4037610   0.0000000   0.0000000
 AtZNuc=   6.0000000   7.0000000   1.0000000   1.0000000   1.0000000   1.0000000   1.0000000   7.0000000   6.0000000   6.0000000

  Atom        61          62          63          64          65          66          67          68          69          70
 IAtWgt=          14           1          12          14           1          12          14          12          12          14
 AtmWgt=  14.0030740   1.0078250  12.0000000  14.0030740   1.0078250  12.0000000  14.0030740  12.0000000  12.0000000  14.0030740
 NucSpn=           2           1           0           2           1           0           2           0           0           2
 AtZEff=  -0.0000000  -0.0000000  -0.0000000  -0.0000000  -0.0000000  -0.0000000  -0.0000000  -0.0000000  -0.0000000  -0.0000000
 NQMom=    2.0440000   0.0000000   0.0000000   2.0440000   0.0000000   0.0000000   2.0440000   0.0000000   0.0000000   2.0440000
 NMagM=    0.4037610   2.7928460   0.0000000   0.4037610   2.7928460   0.0000000   0.4037610   0.0000000   0.0000000   0.4037610
 AtZNuc=   7.0000000   1.0000000   6.0000000   7.0000000   1.0000000   6.0000000   7.0000000   6.0000000   6.0000000   7.0000000
 Leave Link  101 at Tue Jan 23 21:54:16 2018, MaxMem=  4294967296 cpu:               6.7 elap:               0.2
 (Enter /share/apps/g16/l202.exe)
 Stoichiometry    C23H27N17O3
 Framework group  C1[X(C23H27N17O3)]
 Deg. of freedom   204
 Full point group                 C1      NOp   1
 Largest Abelian subgroup         C1      NOp   1
 Largest concise Abelian subgroup C1      NOp   1
                         Standard orientation:                         
 ---------------------------------------------------------------------
 Center     Atomic      Atomic             Coordinates (Angstroms)
 Number     Number       Type             X           Y           Z
 ---------------------------------------------------------------------
      1          7           0       -6.881546   -1.466266    0.318906
      2          6           0       -8.242654   -0.945655    0.085798
      3          6           0       -4.721541   -1.618047    0.704456
      4          7           0       -5.187797   -2.919705    0.590330
      5          6           0       -6.470461   -2.776165    0.362620
      6          1           0       -7.170340   -3.599600    0.217487
      7          7           0       -3.318498    0.254581    1.000548
      8          6           0       -4.410266    1.005239    0.821282
      9          1           0       -4.248915    2.081022    0.875257
     10          7           0       -5.665517    0.628291    0.586445
     11          6           0       -5.754032   -0.711258    0.539483
     12          6           0       -3.440582   -1.089794    0.947419
     13          7           0       -2.351904   -1.840802    1.126120
     14          1           0       -2.395590   -2.839975    1.095110
     15          1           0       -1.456021   -1.430529    1.296993
     16          1           0       -8.857901   -1.287240    0.796423
     17          1           0       -8.227163    0.053444    0.111730
     18          1           0       -8.569089   -1.249137   -0.809374
     19          7           0       -2.469788    2.497087   -1.666582
     20          6           0       -1.149724    2.206699   -1.419321
     21          6           0       -3.100561    3.820432   -1.488866
     22          7           0        2.012761    3.217985   -0.400617
     23          1           0        2.916647    2.807285   -0.284222
     24          1           0        1.923958    4.189542   -0.179465
     25          7           0       -0.214592    3.074501   -0.976030
     26          6           0        0.966158    2.499015   -0.833734
     27          7           0        1.214254    1.175091   -1.104303
     28          1           0        2.148248    0.820642   -0.966576
     29          6           0        0.267276    0.263907   -1.561298
     30          8           0        0.595029   -0.909813   -1.775058
     31          6           0       -1.006165    0.867532   -1.719022
     32          7           0       -2.211852    0.328047   -2.145847
     33          6           0       -3.048738    1.328844   -2.098622
     34          1           0       -4.103571    1.269514   -2.368975
     35          1           0       -3.841333    3.751528   -0.821543
     36          1           0       -2.417446    4.471547   -1.160745
     37          1           0       -3.467941    4.136504   -2.362902
     38          1           0        6.831494   -0.473835    0.531508
     39          1           0        7.195434   -0.332512   -1.186699
     40          1           0        5.955173    0.690998   -0.461767
     41          1           0        5.042781   -4.634118   -1.093004
     42          6           0        4.776515   -3.577518   -1.062507
     43          8           0        2.490939   -3.949420   -1.577208
     44          6           0        3.423034   -3.188902   -1.317222
     45          1           0        2.249348   -1.516037   -1.428240
     46          7           0        3.193941   -1.829213   -1.253917
     47          8           0        3.813503    0.333612   -0.944796
     48          6           0        4.112290   -0.847177   -0.978623
     49          1           0        6.737287   -2.885989   -0.590310
     50          6           0        5.694762   -2.642756   -0.791119
     51          6           0        6.411279   -0.287693   -0.445648
     52          7           0        5.395397   -1.300911   -0.744169
     53          1           0        3.452381    4.076559    2.493883
     54          1           0        2.366266    3.943796    1.283582
     55          1           0        3.962199    3.818573    0.965171
     56          1           0        1.049420   -2.926902    2.001121
     57          1           0        2.641911   -2.527400    2.464223
     58          7           0        1.753068   -2.225839    2.117480
     59          6           0        1.517592   -0.945460    1.823628
     60          6           0        2.079632    1.357952    1.623224
     61          7           0        0.876440    1.734099    1.159252
     62          1           0       -0.937837    0.901229    0.695213
     63          6           0        0.063265    0.683962    1.065153
     64          7           0        0.297230   -0.599207    1.358972
     65          1           0        5.146693    1.698289    2.587328
     66          6           0        4.158086    1.323053    2.321252
     67          7           0        3.788569    0.068704    2.409253
     68          6           0        2.472736    0.076944    1.969673
     69          6           0        3.244189    3.615782    1.631127
     70          7           0        3.173491    2.158438    1.852804
 ---------------------------------------------------------------------
 Rotational constants (GHZ):           0.1444425           0.0527095           0.0463507
 Leave Link  202 at Tue Jan 23 21:54:16 2018, MaxMem=  4294967296 cpu:               0.3 elap:               0.0
 (Enter /share/apps/g16/l301.exe)
 Standard basis: CC-pVDZ (5D, 7F)
 Ernie: Thresh=  0.10000D-02 Tol=  0.10000D-05 Strict=F.
 Ernie:  86 primitive shells out of 1081 were deleted.
 There are   780 symmetry adapted cartesian basis functions of A   symmetry.
 There are   737 symmetry adapted basis functions of A   symmetry.
   737 basis functions,  1608 primitive gaussians,   780 cartesian basis functions
   154 alpha electrons      154 beta electrons
       nuclear repulsion energy      5510.1346978443 Hartrees.
 IExCor= 4639 DFT=T Ex+Corr=wB97XD ExCW=0 ScaHFX=  1.000000
 ScaDFX=  1.000000  1.000000  1.000000  1.000000 ScalE2=  1.000000  1.000000
 IRadAn=      5 IRanWt=     -1 IRanGd=            0 ICorTp=0 IEmpDi=121
 HFx  wShort=  0.000000 wLong=  0.200000 cFull=  0.222036 cShort=  0.000000 cLong=  0.777964
 DFx  wShort=  0.000000 wLong=  0.200000 cFull=  0.000000 cShort=  0.000000 cLong=  1.000000
 NAtoms=   70 NActive=   70 NUniq=   70 SFac= 1.00D+00 NAtFMM=   60 NAOKFM=T Big=T
 Integral buffers will be    131072 words long.
 Raffenetti 2 integral format.
 Two-electron integral symmetry is turned on.
 R6Disp:  Grimme-D2 Dispersion energy=       -0.0711603408 Hartrees.
 Nuclear repulsion after empirical dispersion term =     5510.0635375036 Hartrees.
 Leave Link  301 at Tue Jan 23 21:54:16 2018, MaxMem=  4294967296 cpu:               2.1 elap:               0.1
 (Enter /share/apps/g16/l302.exe)
 NPDir=0 NMtPBC=     1 NCelOv=     1 NCel=       1 NClECP=     1 NCelD=      1
         NCelK=      1 NCelE2=     1 NClLst=     1 CellRange=     0.0.
 One-electron integrals computed using PRISM.
 One-electron integral symmetry used in STVInt
 NBasis=   737 RedAO= T EigKep=  6.66D-04  NBF=   737
 NBsUse=   737 1.00D-06 EigRej= -1.00D+00 NBFU=   737
 Precomputing XC quadrature grid using
 IXCGrd= 4 IRadAn=           5 IRanWt=          -1 IRanGd=           0 AccXCQ= 0.00D+00.
 Generated NRdTot=       0 NPtTot=           0 NUsed=           0 NTot=          32
 NSgBfM=   763   763   763   763   763 MxSgAt=    70 MxSgA2=    70.
 Leave Link  302 at Tue Jan 23 21:54:20 2018, MaxMem=  4294967296 cpu:             133.9 elap:               4.2
 (Enter /share/apps/g16/l303.exe)
 DipDrv:  MaxL=1.
 Leave Link  303 at Tue Jan 23 21:54:20 2018, MaxMem=  4294967296 cpu:              12.8 elap:               0.5
 (Enter /share/apps/g16/l401.exe)
 ExpMin= 1.22D-01 ExpMax= 1.17D+04 ExpMxC= 4.01D+02 IAcc=3 IRadAn=         5 AccDes= 0.00D+00
 Harris functional with IExCor= 4639 and IRadAn=       5 diagonalized for initial guess.
 HarFok:  IExCor= 4639 AccDes= 0.00D+00 IRadAn=         5 IDoV= 1 UseB2=F ITyADJ=14
 ICtDFT=  3500011 ScaDFX=  1.000000  1.000000  1.000000  1.000000
 FoFCou: FMM=F IPFlag=           0 FMFlag=      100000 FMFlg1=        2001
         NFxFlg=           0 DoJE=T BraDBF=F KetDBF=T FulRan=T
         wScrn=  0.000000 ICntrl=       500 IOpCl=  0 I1Cent=   200000004 NGrid=           0
         NMat0=    1 NMatS0=      1 NMatT0=    0 NMatD0=    1 NMtDS0=    0 NMtDT0=    0
 Petite list used in FoFCou.
 Harris En= -1963.75978597822    
 JPrj=0 DoOrth=F DoCkMO=F.
 Leave Link  401 at Tue Jan 23 21:54:33 2018, MaxMem=  4294967296 cpu:             404.2 elap:              12.7
 (Enter /share/apps/g16/l502.exe)
 Integral symmetry usage will be decided dynamically.
 Closed shell SCF:
 Using DIIS extrapolation, IDIIS=  1040.
 NGot=  4294967296 LenX=  4293717438 LenY=  4293108258
 Requested convergence on RMS density matrix=1.00D-08 within  20 cycles.
 Requested convergence on MAX density matrix=1.00D-06.
 Requested convergence on             energy=1.00D-06.
 No special actions if energy rises.
 Fock matrices will be formed incrementally for  20 cycles.
 Integral accuracy reduced to 1.0D-05 until final iterations.

 Cycle   1  Pass 0  IDiag  1:
 FoFJK:  IHMeth= 1 ICntrl=       0 DoSepK=T KAlg= 0 I1Cent=           0 FoldK=F
 IRaf=         1 NMat=       1 IRICut=       1 DoRegI=T DoRafI=F ISym2E= 0 IDoP0=0 IntGTp=1.
 FoFCou: FMM=T IPFlag=           0 FMFlag=      100000 FMFlg1=        2001
         NFxFlg=           0 DoJE=T BraDBF=F KetDBF=F FulRan=T
         wScrn=  0.000000 ICntrl=       500 IOpCl=  0 I1Cent=           0 NGrid=           0
         NMat0=    1 NMatS0=      1 NMatT0=    0 NMatD0=    1 NMtDS0=    0 NMtDT0=    0
 Symmetry not used in FoFCou.
 FMM levels:  10  Number of levels for PrismC:   9
 E= -2048.21279503923    
 DIIS: error= 2.34D-02 at cycle   1 NSaved=   1.
 NSaved= 1 IEnMin= 1 EnMin= -2048.21279503923     IErMin= 1 ErrMin= 2.34D-02
 ErrMax= 2.34D-02  0.00D+00 EMaxC= 1.00D-01 BMatC= 8.35D-01 BMatP= 8.35D-01
 IDIUse=3 WtCom= 7.66D-01 WtEn= 2.34D-01
 Coeff-Com:  0.100D+01
 Coeff-En:   0.100D+01
 Coeff:      0.100D+01
 Gap=     0.259 Goal=   None    Shift=    0.000
 GapD=    0.259 DampG=1.000 DampE=0.500 DampFc=0.5000 IDamp=-1.
 Damping current iteration by 5.00D-01
 RMSDP=1.61D-03 MaxDP=1.30D-01              OVMax= 1.89D-01

 Cycle   2  Pass 0  IDiag  1:
 RMSU=  8.02D-04    CP:  9.97D-01
 E= -2048.41159535001     Delta-E=       -0.198800310784 Rises=F Damp=T
 DIIS: error= 1.29D-02 at cycle   2 NSaved=   2.
 NSaved= 2 IEnMin= 2 EnMin= -2048.41159535001     IErMin= 2 ErrMin= 1.29D-02
 ErrMax= 1.29D-02  0.00D+00 EMaxC= 1.00D-01 BMatC= 1.45D-01 BMatP= 8.35D-01
 IDIUse=3 WtCom= 8.71D-01 WtEn= 1.29D-01
 Coeff-Com: -0.193D+00 0.119D+01
 Coeff-En:   0.000D+00 0.100D+01
 Coeff:     -0.168D+00 0.117D+01
 Gap=     0.355 Goal=   None    Shift=    0.000
 RMSDP=6.00D-04 MaxDP=3.32D-02 DE=-1.99D-01 OVMax= 1.33D-01

 Cycle   3  Pass 0  IDiag  1:
 RMSU=  5.88D-04    CP:  9.94D-01  1.13D+00
 E= -2048.59463171009     Delta-E=       -0.183036360077 Rises=F Damp=F
 DIIS: error= 6.13D-03 at cycle   3 NSaved=   3.
 NSaved= 3 IEnMin= 3 EnMin= -2048.59463171009     IErMin= 3 ErrMin= 6.13D-03
 ErrMax= 6.13D-03  0.00D+00 EMaxC= 1.00D-01 BMatC= 6.19D-02 BMatP= 1.45D-01
 IDIUse=3 WtCom= 9.39D-01 WtEn= 6.13D-02
 Coeff-Com: -0.229D+00 0.542D+00 0.687D+00
 Coeff-En:   0.000D+00 0.000D+00 0.100D+01
 Coeff:     -0.215D+00 0.509D+00 0.706D+00
 Gap=     0.278 Goal=   None    Shift=    0.000
 RMSDP=3.57D-04 MaxDP=3.31D-02 DE=-1.83D-01 OVMax= 6.69D-02

 Cycle   4  Pass 0  IDiag  1:
 RMSU=  2.06D-04    CP:  9.94D-01  1.41D+00  6.84D-01
 E= -2048.64185965113     Delta-E=       -0.047227941046 Rises=F Damp=F
 DIIS: error= 2.24D-03 at cycle   4 NSaved=   4.
 NSaved= 4 IEnMin= 4 EnMin= -2048.64185965113     IErMin= 4 ErrMin= 2.24D-03
 ErrMax= 2.24D-03  0.00D+00 EMaxC= 1.00D-01 BMatC= 8.62D-03 BMatP= 6.19D-02
 IDIUse=3 WtCom= 9.78D-01 WtEn= 2.24D-02
 Coeff-Com: -0.975D-01 0.189D+00 0.378D+00 0.531D+00
 Coeff-En:   0.000D+00 0.000D+00 0.525D-01 0.947D+00
 Coeff:     -0.953D-01 0.185D+00 0.370D+00 0.540D+00
 Gap=     0.281 Goal=   None    Shift=    0.000
 RMSDP=1.28D-04 MaxDP=1.17D-02 DE=-4.72D-02 OVMax= 1.31D-02

 Cycle   5  Pass 0  IDiag  1:
 RMSU=  6.28D-05    CP:  9.93D-01  1.39D+00  8.12D-01  6.15D-01
 E= -2048.64902325750     Delta-E=       -0.007163606372 Rises=F Damp=F
 DIIS: error= 5.08D-04 at cycle   5 NSaved=   5.
 NSaved= 5 IEnMin= 5 EnMin= -2048.64902325750     IErMin= 5 ErrMin= 5.08D-04
 ErrMax= 5.08D-04  0.00D+00 EMaxC= 1.00D-01 BMatC= 2.92D-04 BMatP= 8.62D-03
 IDIUse=3 WtCom= 9.95D-01 WtEn= 5.08D-03
 Coeff-Com: -0.253D-01 0.435D-01 0.120D+00 0.237D+00 0.624D+00
 Coeff-En:   0.000D+00 0.000D+00 0.000D+00 0.000D+00 0.100D+01
 Coeff:     -0.252D-01 0.433D-01 0.120D+00 0.236D+00 0.626D+00
 Gap=     0.281 Goal=   None    Shift=    0.000
 RMSDP=2.73D-05 MaxDP=1.74D-03 DE=-7.16D-03 OVMax= 3.30D-03

 Failed to achieve initial convergence to 1.0D-08 in  6 cycles.
 Switch to full accuracy anyway.
 Cycle   6  Pass 1  IDiag  1:
 E= -2048.64926043728     Delta-E=       -0.000237179771 Rises=F Damp=F
 DIIS: error= 2.42D-04 at cycle   1 NSaved=   1.
 NSaved= 1 IEnMin= 1 EnMin= -2048.64926043728     IErMin= 1 ErrMin= 2.42D-04
 ErrMax= 2.42D-04  0.00D+00 EMaxC= 1.00D-01 BMatC= 8.05D-05 BMatP= 8.05D-05
 IDIUse=3 WtCom= 9.98D-01 WtEn= 2.42D-03
 Coeff-Com:  0.100D+01
 Coeff-En:   0.100D+01
 Coeff:      0.100D+01
 Gap=     0.281 Goal=   None    Shift=    0.000
 RMSDP=2.73D-05 MaxDP=1.74D-03 DE=-2.37D-04 OVMax= 2.75D-03

 Cycle   7  Pass 1  IDiag  1:
 RMSU=  1.22D-04    CP:  1.00D+00
 E= -2048.64931798827     Delta-E=       -0.000057550990 Rises=F Damp=F
 DIIS: error= 1.96D-04 at cycle   2 NSaved=   2.
 NSaved= 2 IEnMin= 2 EnMin= -2048.64931798827     IErMin= 2 ErrMin= 1.96D-04
 ErrMax= 1.96D-04  0.00D+00 EMaxC= 1.00D-01 BMatC= 4.70D-05 BMatP= 8.05D-05
 IDIUse=3 WtCom= 9.98D-01 WtEn= 1.96D-03
 Coeff-Com:  0.409D+00 0.591D+00
 Coeff-En:   0.000D+00 0.100D+01
 Coeff:      0.408D+00 0.592D+00
 Gap=     0.281 Goal=   None    Shift=    0.000
 RMSDP=1.26D-05 MaxDP=9.88D-04 DE=-5.76D-05 OVMax= 1.58D-03

 Cycle   8  Pass 1  IDiag  1:
 RMSU=  1.23D-05    CP:  1.00D+00  1.02D+00
 E= -2048.64935176437     Delta-E=       -0.000033776101 Rises=F Damp=F
 DIIS: error= 7.10D-05 at cycle   3 NSaved=   3.
 NSaved= 3 IEnMin= 3 EnMin= -2048.64935176437     IErMin= 3 ErrMin= 7.10D-05
 ErrMax= 7.10D-05  0.00D+00 EMaxC= 1.00D-01 BMatC= 1.12D-05 BMatP= 4.70D-05
 IDIUse=1 WtCom= 1.00D+00 WtEn= 0.00D+00
 Coeff-Com: -0.188D-01 0.316D+00 0.703D+00
 Coeff:     -0.188D-01 0.316D+00 0.703D+00
 Gap=     0.281 Goal=   None    Shift=    0.000
 RMSDP=6.08D-06 MaxDP=3.93D-04 DE=-3.38D-05 OVMax= 7.15D-04

 Cycle   9  Pass 1  IDiag  1:
 RMSU=  3.96D-06    CP:  1.00D+00  1.05D+00  7.49D-01
 E= -2048.64936230465     Delta-E=       -0.000010540284 Rises=F Damp=F
 DIIS: error= 2.66D-05 at cycle   4 NSaved=   4.
 NSaved= 4 IEnMin= 4 EnMin= -2048.64936230465     IErMin= 4 ErrMin= 2.66D-05
 ErrMax= 2.66D-05  0.00D+00 EMaxC= 1.00D-01 BMatC= 5.71D-07 BMatP= 1.12D-05
 IDIUse=1 WtCom= 1.00D+00 WtEn= 0.00D+00
 Coeff-Com: -0.303D-01 0.912D-01 0.271D+00 0.668D+00
 Coeff:     -0.303D-01 0.912D-01 0.271D+00 0.668D+00
 Gap=     0.281 Goal=   None    Shift=    0.000
 RMSDP=1.49D-06 MaxDP=1.19D-04 DE=-1.05D-05 OVMax= 4.75D-04

 Cycle  10  Pass 1  IDiag  1:
 RMSU=  1.33D-06    CP:  1.00D+00  1.06D+00  7.84D-01  1.09D+00
 E= -2048.64936320623     Delta-E=       -0.000000901581 Rises=F Damp=F
 DIIS: error= 1.28D-05 at cycle   5 NSaved=   5.
 NSaved= 5 IEnMin= 5 EnMin= -2048.64936320623     IErMin= 5 ErrMin= 1.28D-05
 ErrMax= 1.28D-05  0.00D+00 EMaxC= 1.00D-01 BMatC= 1.19D-07 BMatP= 5.71D-07
 IDIUse=1 WtCom= 1.00D+00 WtEn= 0.00D+00
 Coeff-Com: -0.270D-02-0.568D-01-0.117D+00 0.188D+00 0.989D+00
 Coeff:     -0.270D-02-0.568D-01-0.117D+00 0.188D+00 0.989D+00
 Gap=     0.281 Goal=   None    Shift=    0.000
 RMSDP=1.24D-06 MaxDP=7.63D-05 DE=-9.02D-07 OVMax= 2.64D-04

 Cycle  11  Pass 1  IDiag  1:
 RMSU=  5.06D-07    CP:  1.00D+00  1.06D+00  7.91D-01  1.37D+00  1.19D+00
 E= -2048.64936347991     Delta-E=       -0.000000273676 Rises=F Damp=F
 DIIS: error= 7.10D-06 at cycle   6 NSaved=   6.
 NSaved= 6 IEnMin= 6 EnMin= -2048.64936347991     IErMin= 6 ErrMin= 7.10D-06
 ErrMax= 7.10D-06  0.00D+00 EMaxC= 1.00D-01 BMatC= 3.10D-08 BMatP= 1.19D-07
 IDIUse=1 WtCom= 1.00D+00 WtEn= 0.00D+00
 Coeff-Com:  0.470D-02-0.475D-01-0.115D+00-0.105D-01 0.534D+00 0.635D+00
 Coeff:      0.470D-02-0.475D-01-0.115D+00-0.105D-01 0.534D+00 0.635D+00
 Gap=     0.281 Goal=   None    Shift=    0.000
 RMSDP=3.96D-07 MaxDP=3.36D-05 DE=-2.74D-07 OVMax= 1.23D-04

 Cycle  12  Pass 1  IDiag  1:
 RMSU=  1.94D-07    CP:  1.00D+00  1.06D+00  7.94D-01  1.44D+00  1.32D+00
                    CP:  9.23D-01
 E= -2048.64936352449     Delta-E=       -0.000000044583 Rises=F Damp=F
 DIIS: error= 1.01D-06 at cycle   7 NSaved=   7.
 NSaved= 7 IEnMin= 7 EnMin= -2048.64936352449     IErMin= 7 ErrMin= 1.01D-06
 ErrMax= 1.01D-06  0.00D+00 EMaxC= 1.00D-01 BMatC= 7.59D-10 BMatP= 3.10D-08
 IDIUse=1 WtCom= 1.00D+00 WtEn= 0.00D+00
 Coeff-Com:  0.110D-02-0.793D-02-0.205D-01-0.913D-02 0.660D-01 0.137D+00
 Coeff-Com:  0.834D+00
 Coeff:      0.110D-02-0.793D-02-0.205D-01-0.913D-02 0.660D-01 0.137D+00
 Coeff:      0.834D+00
 Gap=     0.281 Goal=   None    Shift=    0.000
 RMSDP=8.53D-08 MaxDP=5.67D-06 DE=-4.46D-08 OVMax= 2.46D-05

 Cycle  13  Pass 1  IDiag  1:
 RMSU=  5.56D-08    CP:  1.00D+00  1.06D+00  7.93D-01  1.45D+00  1.34D+00
                    CP:  1.01D+00  1.12D+00
 E= -2048.64936352612     Delta-E=       -0.000000001632 Rises=F Damp=F
 DIIS: error= 5.42D-07 at cycle   8 NSaved=   8.
 NSaved= 8 IEnMin= 8 EnMin= -2048.64936352612     IErMin= 8 ErrMin= 5.42D-07
 ErrMax= 5.42D-07  0.00D+00 EMaxC= 1.00D-01 BMatC= 4.00D-10 BMatP= 7.59D-10
 IDIUse=1 WtCom= 1.00D+00 WtEn= 0.00D+00
 Coeff-Com: -0.687D-03 0.875D-02 0.205D-01-0.138D-02-0.112D+00-0.102D+00
 Coeff-Com:  0.447D+00 0.740D+00
 Coeff:     -0.687D-03 0.875D-02 0.205D-01-0.138D-02-0.112D+00-0.102D+00
 Coeff:      0.447D+00 0.740D+00
 Gap=     0.281 Goal=   None    Shift=    0.000
 RMSDP=5.22D-08 MaxDP=3.71D-06 DE=-1.63D-09 OVMax= 1.02D-05

 Cycle  14  Pass 1  IDiag  1:
 RMSU=  3.03D-08    CP:  1.00D+00  1.06D+00  7.94D-01  1.45D+00  1.35D+00
                    CP:  1.05D+00  1.28D+00  1.01D+00
 E= -2048.64936352666     Delta-E=       -0.000000000539 Rises=F Damp=F
 DIIS: error= 2.35D-07 at cycle   9 NSaved=   9.
 NSaved= 9 IEnMin= 9 EnMin= -2048.64936352666     IErMin= 9 ErrMin= 2.35D-07
 ErrMax= 2.35D-07  0.00D+00 EMaxC= 1.00D-01 BMatC= 4.23D-11 BMatP= 4.00D-10
 IDIUse=1 WtCom= 1.00D+00 WtEn= 0.00D+00
 Coeff-Com: -0.457D-03 0.508D-02 0.121D-01 0.100D-02-0.584D-01-0.633D-01
 Coeff-Com:  0.114D+00 0.328D+00 0.662D+00
 Coeff:     -0.457D-03 0.508D-02 0.121D-01 0.100D-02-0.584D-01-0.633D-01
 Coeff:      0.114D+00 0.328D+00 0.662D+00
 Gap=     0.281 Goal=   None    Shift=    0.000
 RMSDP=1.42D-08 MaxDP=9.83D-07 DE=-5.39D-10 OVMax= 3.26D-06

 Cycle  15  Pass 1  IDiag  1:
 RMSU=  9.94D-09    CP:  1.00D+00  1.06D+00  7.93D-01  1.45D+00  1.35D+00
                    CP:  1.06D+00  1.31D+00  1.15D+00  1.07D+00
 E= -2048.64936352659     Delta-E=        0.000000000070 Rises=F Damp=F
 DIIS: error= 1.13D-07 at cycle  10 NSaved=  10.
 NSaved=10 IEnMin= 9 EnMin= -2048.64936352666     IErMin=10 ErrMin= 1.13D-07
 ErrMax= 1.13D-07  0.00D+00 EMaxC= 1.00D-01 BMatC= 5.94D-12 BMatP= 4.23D-11
 IDIUse=1 WtCom= 1.00D+00 WtEn= 0.00D+00
 Coeff-Com: -0.670D-05-0.181D-03-0.337D-03 0.205D-03 0.367D-02-0.432D-03
 Coeff-Com: -0.567D-01-0.541D-01 0.226D+00 0.882D+00
 Coeff:     -0.670D-05-0.181D-03-0.337D-03 0.205D-03 0.367D-02-0.432D-03
 Coeff:     -0.567D-01-0.541D-01 0.226D+00 0.882D+00
 Gap=     0.281 Goal=   None    Shift=    0.000
 RMSDP=8.29D-09 MaxDP=4.13D-07 DE= 7.00D-11 OVMax= 1.74D-06

 SCF Done:  E(RwB97XD) =  -2048.64936353     A.U. after   15 cycles
            NFock= 15  Conv=0.83D-08     -V/T= 2.0051
 KE= 2.038294513957D+03 PE=-1.580097527168D+04 EE= 6.203967856694D+03
 Leave Link  502 at Tue Jan 23 22:06:08 2018, MaxMem=  4294967296 cpu:           21487.2 elap:             694.6
 (Enter /share/apps/g16/l601.exe)
 Copying SCF densities to generalized density rwf, IOpCl= 0 IROHF=0.

 **********************************************************************

            Population analysis using the SCF density.

 **********************************************************************

 Orbital symmetries:
       Occupied  (A) (A) (A) (A) (A) (A) (A) (A) (A) (A) (A) (A)
                 (A) (A) (A) (A) (A) (A) (A) (A) (A) (A) (A) (A)
                 (A) (A) (A) (A) (A) (A) (A) (A) (A) (A) (A) (A)
                 (A) (A) (A) (A) (A) (A) (A) (A) (A) (A) (A) (A)
                 (A) (A) (A) (A) (A) (A) (A) (A) (A) (A) (A) (A)
                 (A) (A) (A) (A) (A) (A) (A) (A) (A) (A) (A) (A)
                 (A) (A) (A) (A) (A) (A) (A) (A) (A) (A) (A) (A)
                 (A) (A) (A) (A) (A) (A) (A) (A) (A) (A) (A) (A)
                 (A) (A) (A) (A) (A) (A) (A) (A) (A) (A) (A) (A)
                 (A) (A) (A) (A) (A) (A) (A) (A) (A) (A) (A) (A)
                 (A) (A) (A) (A) (A) (A) (A) (A) (A) (A) (A) (A)
                 (A) (A) (A) (A) (A) (A) (A) (A) (A) (A) (A) (A)
                 (A) (A) (A) (A) (A) (A) (A) (A) (A) (A)
       Virtual   (A) (A) (A) (A) (A) (A) (A) (A) (A) (A) (A) (A)
                 (A) (A) (A) (A) (A) (A) (A) (A) (A) (A) (A) (A)
                 (A) (A) (A) (A) (A) (A) (A) (A) (A) (A) (A) (A)
                 (A) (A) (A) (A) (A) (A) (A) (A) (A) (A) (A) (A)
                 (A) (A) (A) (A) (A) (A) (A) (A) (A) (A) (A) (A)
                 (A) (A) (A) (A) (A) (A) (A) (A) (A) (A) (A) (A)
                 (A) (A) (A) (A) (A) (A) (A) (A) (A) (A) (A) (A)
                 (A) (A) (A) (A) (A) (A) (A) (A) (A) (A) (A) (A)
                 (A) (A) (A) (A) (A) (A) (A) (A) (A) (A) (A) (A)
                 (A) (A) (A) (A) (A) (A) (A) (A) (A) (A) (A) (A)
                 (A) (A) (A) (A) (A) (A) (A) (A) (A) (A) (A) (A)
                 (A) (A) (A) (A) (A) (A) (A) (A) (A) (A) (A) (A)
                 (A) (A) (A) (A) (A) (A) (A) (A) (A) (A) (A) (A)
                 (A) (A) (A) (A) (A) (A) (A) (A) (A) (A) (A) (A)
                 (A) (A) (A) (A) (A) (A) (A) (A) (A) (A) (A) (A)
                 (A) (A) (A) (A) (A) (A) (A) (A) (A) (A) (A) (A)
                 (A) (A) (A) (A) (A) (A) (A) (A) (A) (A) (A) (A)
                 (A) (A) (A) (A) (A) (A) (A) (A) (A) (A) (A) (A)
                 (A) (A) (A) (A) (A) (A) (A) (A) (A) (A) (A) (A)
                 (A) (A) (A) (A) (A) (A) (A) (A) (A) (A) (A) (A)
                 (A) (A) (A) (A) (A) (A) (A) (A) (A) (A) (A) (A)
                 (A) (A) (A) (A) (A) (A) (A) (A) (A) (A) (A) (A)
                 (A) (A) (A) (A) (A) (A) (A) (A) (A) (A) (A) (A)
                 (A) (A) (A) (A) (A) (A) (A) (A) (A) (A) (A) (A)
                 (A) (A) (A) (A) (A) (A) (A) (A) (A) (A) (A) (A)
                 (A) (A) (A) (A) (A) (A) (A) (A) (A) (A) (A) (A)
                 (A) (A) (A) (A) (A) (A) (A) (A) (A) (A) (A) (A)
                 (A) (A) (A) (A) (A) (A) (A) (A) (A) (A) (A) (A)
                 (A) (A) (A) (A) (A) (A) (A) (A) (A) (A) (A) (A)
                 (A) (A) (A) (A) (A) (A) (A) (A) (A) (A) (A) (A)
                 (A) (A) (A) (A) (A) (A) (A) (A) (A) (A) (A) (A)
                 (A) (A) (A) (A) (A) (A) (A) (A) (A) (A) (A) (A)
                 (A) (A) (A) (A) (A) (A) (A) (A) (A) (A) (A) (A)
                 (A) (A) (A) (A) (A) (A) (A) (A) (A) (A) (A) (A)
                 (A) (A) (A) (A) (A) (A) (A) (A) (A) (A) (A) (A)
                 (A) (A) (A) (A) (A) (A) (A) (A) (A) (A) (A) (A)
                 (A) (A) (A) (A) (A) (A) (A) (A) (A) (A) (A) (A)
                 (A) (A) (A) (A) (A) (A) (A) (A) (A) (A) (A) (A)
                 (A) (A) (A) (A) (A) (A) (A) (A) (A) (A) (A) (A)
                 (A) (A) (A) (A) (A) (A) (A) (A) (A) (A) (A) (A)
                 (A) (A) (A) (A) (A) (A) (A) (A) (A) (A) (A) (A)
                 (A) (A) (A) (A) (A) (A) (A) (A) (A) (A) (A) (A)
                 (A) (A) (A) (A) (A) (A) (A) (A) (A) (A) (A) (A)
                 (A) (A) (A) (A) (A) (A) (A) (A) (A) (A) (A) (A)
                 (A) (A) (A) (A) (A) (A) (A) (A) (A) (A) (A) (A)
                 (A) (A) (A) (A) (A) (A) (A) (A) (A) (A) (A) (A)
                 (A) (A) (A) (A) (A) (A) (A) (A) (A) (A) (A) (A)
                 (A) (A) (A) (A) (A) (A) (A) (A) (A) (A) (A) (A)
                 (A) (A) (A) (A) (A) (A) (A)
 The electronic state is 1-A.
 Alpha  occ. eigenvalues --  -19.25907 -19.21971 -19.20464 -14.52444 -14.52154
 Alpha  occ. eigenvalues --  -14.49304 -14.48589 -14.47918 -14.47433 -14.45949
 Alpha  occ. eigenvalues --  -14.45917 -14.44972 -14.43505 -14.42798 -14.42614
 Alpha  occ. eigenvalues --  -14.41989 -14.41613 -14.41546 -14.40728 -14.40577
 Alpha  occ. eigenvalues --  -10.45530 -10.41322 -10.40100 -10.39164 -10.38017
 Alpha  occ. eigenvalues --  -10.37796 -10.37613 -10.36404 -10.36006 -10.35350
 Alpha  occ. eigenvalues --  -10.34656 -10.34642 -10.34224 -10.33956 -10.33741
 Alpha  occ. eigenvalues --  -10.33588 -10.33030 -10.32019 -10.31370 -10.31099
 Alpha  occ. eigenvalues --  -10.30736 -10.29138 -10.27934  -1.19477  -1.15085
 Alpha  occ. eigenvalues --   -1.13272  -1.13002  -1.11908  -1.10454  -1.09331
 Alpha  occ. eigenvalues --   -1.09071  -1.08408  -1.05571  -1.04019  -1.02528
 Alpha  occ. eigenvalues --   -1.01584  -1.01035  -0.99532  -0.98374  -0.97512
 Alpha  occ. eigenvalues --   -0.96482  -0.96140  -0.93229  -0.91057  -0.87450
 Alpha  occ. eigenvalues --   -0.86097  -0.84489  -0.83928  -0.83703  -0.82830
 Alpha  occ. eigenvalues --   -0.82414  -0.78885  -0.76652  -0.74876  -0.74234
 Alpha  occ. eigenvalues --   -0.73801  -0.73477  -0.73378  -0.71664  -0.70056
 Alpha  occ. eigenvalues --   -0.67696  -0.66875  -0.66697  -0.66422  -0.64470
 Alpha  occ. eigenvalues --   -0.64144  -0.63751  -0.63295  -0.62855  -0.62549
 Alpha  occ. eigenvalues --   -0.60803  -0.60473  -0.60207  -0.59655  -0.59505
 Alpha  occ. eigenvalues --   -0.59068  -0.58585  -0.57252  -0.56942  -0.56853
 Alpha  occ. eigenvalues --   -0.56116  -0.55821  -0.55697  -0.54626  -0.54323
 Alpha  occ. eigenvalues --   -0.53772  -0.53369  -0.53153  -0.52806  -0.52645
 Alpha  occ. eigenvalues --   -0.52448  -0.52243  -0.52026  -0.51287  -0.50717
 Alpha  occ. eigenvalues --   -0.50015  -0.49775  -0.49417  -0.49310  -0.48744
 Alpha  occ. eigenvalues --   -0.48653  -0.48217  -0.48157  -0.47917  -0.47509
 Alpha  occ. eigenvalues --   -0.47309  -0.45809  -0.45547  -0.43988  -0.42671
 Alpha  occ. eigenvalues --   -0.41780  -0.39666  -0.39409  -0.37785  -0.37540
 Alpha  occ. eigenvalues --   -0.37077  -0.37019  -0.36548  -0.35828  -0.34895
 Alpha  occ. eigenvalues --   -0.34126  -0.33982  -0.33323  -0.33139  -0.32593
 Alpha  occ. eigenvalues --   -0.32275  -0.32130  -0.31945  -0.31684  -0.31453
 Alpha  occ. eigenvalues --   -0.30930  -0.28534  -0.26378  -0.25024
 Alpha virt. eigenvalues --    0.03094   0.03967   0.07266   0.07359   0.08418
 Alpha virt. eigenvalues --    0.09303   0.09538   0.10362   0.11405   0.12362
 Alpha virt. eigenvalues --    0.12806   0.13708   0.14127   0.14339   0.14989
 Alpha virt. eigenvalues --    0.15941   0.16059   0.16567   0.16621   0.17947
 Alpha virt. eigenvalues --    0.18863   0.19393   0.19478   0.20239   0.20343
 Alpha virt. eigenvalues --    0.20849   0.21302   0.21406   0.21831   0.22201
 Alpha virt. eigenvalues --    0.22819   0.23350   0.23491   0.23647   0.23660
 Alpha virt. eigenvalues --    0.24020   0.24115   0.24958   0.25544   0.25762
 Alpha virt. eigenvalues --    0.26200   0.26464   0.27957   0.28415   0.28528
 Alpha virt. eigenvalues --    0.29276   0.29614   0.29888   0.30800   0.31125
 Alpha virt. eigenvalues --    0.31519   0.32040   0.32512   0.33307   0.33895
 Alpha virt. eigenvalues --    0.34070   0.34630   0.35169   0.35780   0.36473
 Alpha virt. eigenvalues --    0.37491   0.37690   0.38472   0.39448   0.39577
 Alpha virt. eigenvalues --    0.40469   0.40872   0.41199   0.41463   0.41764
 Alpha virt. eigenvalues --    0.42173   0.42883   0.43374   0.43972   0.44541
 Alpha virt. eigenvalues --    0.45027   0.45386   0.46117   0.46221   0.47237
 Alpha virt. eigenvalues --    0.47547   0.48066   0.48595   0.49410   0.49498
 Alpha virt. eigenvalues --    0.50054   0.50666   0.50882   0.51170   0.51512
 Alpha virt. eigenvalues --    0.51856   0.52272   0.52575   0.53176   0.53806
 Alpha virt. eigenvalues --    0.54035   0.54717   0.54929   0.55547   0.55812
 Alpha virt. eigenvalues --    0.56155   0.57165   0.57366   0.57819   0.58203
 Alpha virt. eigenvalues --    0.58543   0.58953   0.59138   0.59395   0.59723
 Alpha virt. eigenvalues --    0.60168   0.60319   0.60949   0.61299   0.61635
 Alpha virt. eigenvalues --    0.62318   0.62764   0.63032   0.63142   0.63401
 Alpha virt. eigenvalues --    0.64118   0.64465   0.64784   0.64905   0.65503
 Alpha virt. eigenvalues --    0.65891   0.66145   0.66496   0.66920   0.67700
 Alpha virt. eigenvalues --    0.68213   0.68275   0.68642   0.68999   0.69304
 Alpha virt. eigenvalues --    0.69600   0.69838   0.70525   0.71380   0.71749
 Alpha virt. eigenvalues --    0.71927   0.72134   0.73346   0.73949   0.74149
 Alpha virt. eigenvalues --    0.74447   0.74715   0.74876   0.75239   0.75529
 Alpha virt. eigenvalues --    0.75723   0.76138   0.76286   0.76711   0.76972
 Alpha virt. eigenvalues --    0.77028   0.77616   0.78306   0.78880   0.78922
 Alpha virt. eigenvalues --    0.79355   0.79851   0.80018   0.80519   0.80927
 Alpha virt. eigenvalues --    0.81228   0.82103   0.82300   0.82860   0.83081
 Alpha virt. eigenvalues --    0.83804   0.83837   0.84353   0.84693   0.85084
 Alpha virt. eigenvalues --    0.85633   0.86207   0.86675   0.87154   0.87759
 Alpha virt. eigenvalues --    0.88190   0.88554   0.89046   0.89657   0.89745
 Alpha virt. eigenvalues --    0.90316   0.90612   0.90960   0.91681   0.92148
 Alpha virt. eigenvalues --    0.93040   0.93186   0.93540   0.93923   0.94352
 Alpha virt. eigenvalues --    0.94877   0.94935   0.95891   0.96302   0.96517
 Alpha virt. eigenvalues --    0.96951   0.97481   0.98123   0.98535   0.98843
 Alpha virt. eigenvalues --    0.99132   0.99907   1.00282   1.00875   1.01345
 Alpha virt. eigenvalues --    1.02277   1.02415   1.02948   1.03654   1.04219
 Alpha virt. eigenvalues --    1.04455   1.04722   1.05329   1.05546   1.05732
 Alpha virt. eigenvalues --    1.07006   1.07488   1.07745   1.08865   1.09503
 Alpha virt. eigenvalues --    1.10300   1.10588   1.10790   1.11891   1.11904
 Alpha virt. eigenvalues --    1.12491   1.13091   1.13288   1.13686   1.14669
 Alpha virt. eigenvalues --    1.15149   1.15544   1.15960   1.16200   1.16458
 Alpha virt. eigenvalues --    1.17217   1.17576   1.17671   1.18330   1.18572
 Alpha virt. eigenvalues --    1.19166   1.19505   1.19796   1.20313   1.20570
 Alpha virt. eigenvalues --    1.21093   1.21271   1.21836   1.22110   1.22438
 Alpha virt. eigenvalues --    1.22675   1.22968   1.23486   1.24113   1.24625
 Alpha virt. eigenvalues --    1.24904   1.25171   1.25589   1.26543   1.27246
 Alpha virt. eigenvalues --    1.27415   1.28136   1.28695   1.29130   1.29934
 Alpha virt. eigenvalues --    1.30110   1.30702   1.31458   1.31931   1.32655
 Alpha virt. eigenvalues --    1.33044   1.33734   1.34431   1.34609   1.35458
 Alpha virt. eigenvalues --    1.36658   1.37327   1.37862   1.38665   1.38831
 Alpha virt. eigenvalues --    1.39116   1.40228   1.41292   1.41746   1.43422
 Alpha virt. eigenvalues --    1.43459   1.44349   1.44963   1.45385   1.46186
 Alpha virt. eigenvalues --    1.46641   1.47887   1.48109   1.48342   1.48712
 Alpha virt. eigenvalues --    1.48815   1.49820   1.50181   1.50672   1.51265
 Alpha virt. eigenvalues --    1.52151   1.52981   1.54487   1.55227   1.55722
 Alpha virt. eigenvalues --    1.55945   1.56616   1.56873   1.58344   1.58833
 Alpha virt. eigenvalues --    1.59214   1.60054   1.60754   1.61186   1.61453
 Alpha virt. eigenvalues --    1.62777   1.63108   1.63298   1.63967   1.65392
 Alpha virt. eigenvalues --    1.65858   1.66273   1.66776   1.66878   1.67343
 Alpha virt. eigenvalues --    1.67873   1.68577   1.68959   1.69636   1.69768
 Alpha virt. eigenvalues --    1.70114   1.70131   1.71013   1.71275   1.71584
 Alpha virt. eigenvalues --    1.71960   1.72864   1.73124   1.73745   1.74003
 Alpha virt. eigenvalues --    1.74335   1.74965   1.75229   1.75336   1.75541
 Alpha virt. eigenvalues --    1.76073   1.76594   1.76781   1.77713   1.77993
 Alpha virt. eigenvalues --    1.78756   1.79080   1.79447   1.79627   1.79786
 Alpha virt. eigenvalues --    1.79890   1.80338   1.80786   1.81115   1.81454
 Alpha virt. eigenvalues --    1.81609   1.81915   1.82785   1.83249   1.83672
 Alpha virt. eigenvalues --    1.83776   1.84244   1.84517   1.85500   1.86275
 Alpha virt. eigenvalues --    1.86983   1.87358   1.87629   1.87750   1.88207
 Alpha virt. eigenvalues --    1.88566   1.88712   1.88965   1.89500   1.89796
 Alpha virt. eigenvalues --    1.90447   1.91834   1.92303   1.92352   1.92489
 Alpha virt. eigenvalues --    1.92856   1.93353   1.93806   1.94374   1.95030
 Alpha virt. eigenvalues --    1.95966   1.96612   1.97777   1.98338   1.99268
 Alpha virt. eigenvalues --    1.99461   1.99890   2.00648   2.00984   2.01896
 Alpha virt. eigenvalues --    2.02191   2.02998   2.03929   2.05044   2.05548
 Alpha virt. eigenvalues --    2.06030   2.06100   2.06493   2.07112   2.08069
 Alpha virt. eigenvalues --    2.08594   2.08673   2.09497   2.10419   2.10577
 Alpha virt. eigenvalues --    2.11365   2.12503   2.12980   2.13550   2.13841
 Alpha virt. eigenvalues --    2.14959   2.15609   2.18273   2.18772   2.19107
 Alpha virt. eigenvalues --    2.19619   2.19957   2.20491   2.20754   2.21275
 Alpha virt. eigenvalues --    2.21712   2.22378   2.23442   2.24102   2.24662
 Alpha virt. eigenvalues --    2.25522   2.25898   2.26962   2.27181   2.28880
 Alpha virt. eigenvalues --    2.29115   2.29149   2.29539   2.30152   2.30462
 Alpha virt. eigenvalues --    2.30877   2.31400   2.32973   2.33333   2.34046
 Alpha virt. eigenvalues --    2.34143   2.34656   2.34832   2.35537   2.36190
 Alpha virt. eigenvalues --    2.37083   2.37511   2.38203   2.38899   2.39897
 Alpha virt. eigenvalues --    2.40449   2.40591   2.41089   2.41982   2.42404
 Alpha virt. eigenvalues --    2.42586   2.43028   2.43513   2.43807   2.44633
 Alpha virt. eigenvalues --    2.45496   2.46138   2.46627   2.47658   2.49021
 Alpha virt. eigenvalues --    2.49569   2.50367   2.50505   2.52108   2.52690
 Alpha virt. eigenvalues --    2.53702   2.54520   2.55233   2.55841   2.56719
 Alpha virt. eigenvalues --    2.57398   2.58669   2.59611   2.60421   2.61005
 Alpha virt. eigenvalues --    2.61094   2.61401   2.61555   2.62242   2.63188
 Alpha virt. eigenvalues --    2.64503   2.64750   2.65525   2.66278   2.67420
 Alpha virt. eigenvalues --    2.67880   2.68465   2.69374   2.69534   2.70260
 Alpha virt. eigenvalues --    2.70859   2.71136   2.72158   2.72988   2.73789
 Alpha virt. eigenvalues --    2.74322   2.75156   2.75454   2.76805   2.77728
 Alpha virt. eigenvalues --    2.79046   2.79471   2.79669   2.79824   2.80344
 Alpha virt. eigenvalues --    2.80461   2.80850   2.81438   2.82174   2.82438
 Alpha virt. eigenvalues --    2.82586   2.83362   2.84307   2.84699   2.85599
 Alpha virt. eigenvalues --    2.86042   2.86739   2.86862   2.87406   2.88560
 Alpha virt. eigenvalues --    2.89112   2.90261   2.92362   2.93273   2.94230
 Alpha virt. eigenvalues --    2.95243   2.97200   2.98594   2.98702   2.99656
 Alpha virt. eigenvalues --    3.00128   3.03555   3.04584   3.05724   3.07231
 Alpha virt. eigenvalues --    3.09753   3.10427   3.12329   3.14187   3.14762
 Alpha virt. eigenvalues --    3.15327   3.15998   3.16726   3.19427   3.22088
 Alpha virt. eigenvalues --    3.22576   3.22682   3.23381   3.26524   3.29544
 Alpha virt. eigenvalues --    3.45718   3.46876   3.49175   3.49608   3.50632
 Alpha virt. eigenvalues --    3.52920   3.53892   3.56579   3.59170   3.60324
 Alpha virt. eigenvalues --    3.62815   3.71447   3.74698
          Condensed to atoms (all electrons):
 Mulliken charges:
               1
     1  N   -0.312159
     2  C    0.180797
     3  C    0.036325
     4  N   -0.259840
     5  C    0.135054
     6  H    0.028436
     7  N   -0.284552
     8  C    0.122549
     9  H    0.011534
    10  N   -0.286900
    11  C    0.244144
    12  C    0.123201
    13  N   -0.056697
    14  H    0.107516
    15  H    0.088001
    16  H    0.026408
    17  H    0.034560
    18  H    0.027378
    19  N   -0.305761
    20  C    0.218753
    21  C    0.182480
    22  N   -0.090701
    23  H    0.116667
    24  H    0.105115
    25  N   -0.267335
    26  C    0.177385
    27  N   -0.104275
    28  H    0.121483
    29  C    0.128534
    30  O   -0.317812
    31  C    0.014383
    32  N   -0.219639
    33  C    0.123820
    34  H    0.029363
    35  H    0.023756
    36  H    0.027423
    37  H    0.024653
    38  H    0.061697
    39  H    0.059862
    40  H    0.070881
    41  H    0.031474
    42  C   -0.113411
    43  O   -0.265168
    44  C    0.177677
    45  H    0.135683
    46  N   -0.137816
    47  O   -0.349271
    48  C    0.362478
    49  H    0.047650
    50  C    0.173284
    51  C    0.041832
    52  N   -0.294083
    53  H    0.026953
    54  H    0.039204
    55  H    0.007308
    56  H    0.122299
    57  H    0.116435
    58  N   -0.067691
    59  C    0.114017
    60  C    0.220267
    61  N   -0.263811
    62  H    0.078099
    63  C    0.155160
    64  N   -0.298332
    65  H    0.030961
    66  C    0.134637
    67  N   -0.264102
    68  C    0.027392
    69  C    0.183256
    70  N   -0.318869
 Sum of Mulliken charges =  -0.00000
 Mulliken charges with hydrogens summed into heavy atoms:
               1
     1  N   -0.312159
     2  C    0.269143
     3  C    0.036325
     4  N   -0.259840
     5  C    0.163490
     7  N   -0.284552
     8  C    0.134083
    10  N   -0.286900
    11  C    0.244144
    12  C    0.123201
    13  N    0.138821
    19  N   -0.305761
    20  C    0.218753
    21  C    0.258312
    22  N    0.131082
    25  N   -0.267335
    26  C    0.177385
    27  N    0.017209
    29  C    0.128534
    30  O   -0.317812
    31  C    0.014383
    32  N   -0.219639
    33  C    0.153183
    42  C   -0.081937
    43  O   -0.265168
    44  C    0.177677
    46  N   -0.002133
    47  O   -0.349271
    48  C    0.362478
    50  C    0.220934
    51  C    0.234272
    52  N   -0.294083
    58  N    0.171043
    59  C    0.114017
    60  C    0.220267
    61  N   -0.263811
    63  C    0.233259
    64  N   -0.298332
    66  C    0.165598
    67  N   -0.264102
    68  C    0.027392
    69  C    0.256721
    70  N   -0.318869
 Electronic spatial extent (au):  <R**2>=          23475.6941
 Charge=             -0.0000 electrons
 Dipole moment (field-independent basis, Debye):
    X=              7.1455    Y=              5.3666    Z=              3.7264  Tot=              9.6822
 Quadrupole moment (field-independent basis, Debye-Ang):
   XX=           -145.8735   YY=           -223.3030   ZZ=           -254.6354
   XY=              5.2963   XZ=             11.9214   YZ=            -11.6897
 Traceless Quadrupole moment (field-independent basis, Debye-Ang):
   XX=             62.0638   YY=            -15.3658   ZZ=            -46.6981
   XY=              5.2963   XZ=             11.9214   YZ=            -11.6897
 Octapole moment (field-independent basis, Debye-Ang**2):
  XXX=              5.9140  YYY=            120.9137  ZZZ=              4.9832  XYY=             65.4731
  XXY=            -70.7076  XXZ=            -54.2953  XZZ=             10.9435  YZZ=             20.3264
  YYZ=             60.1880  XYZ=             33.6892
 Hexadecapole moment (field-independent basis, Debye-Ang**3):
 XXXX=         -15511.4667 YYYY=          -5953.8315 ZZZZ=          -3021.7249 XXXY=            452.1782
 XXXZ=            138.8305 YYYX=             35.2652 YYYZ=           -126.1400 ZZZX=             22.0534
 ZZZY=            -34.7186 XXYY=          -3978.2554 XXZZ=          -4138.5171 YYZZ=          -1506.4557
 XXYZ=             85.1160 YYXZ=            237.2285 ZZXY=              3.2917
 N-N= 5.510063537504D+03 E-N=-1.580097526377D+04  KE= 2.038294513957D+03
 No NMR shielding tensors so no spin-rotation constants.
 Leave Link  601 at Tue Jan 23 22:06:10 2018, MaxMem=  4294967296 cpu:              49.0 elap:               1.7
 (Enter /share/apps/g16/l9999.exe)
 1\1\GINC-COMPUTE-0-3\SP\RwB97XD\CC-pVDZ\C23H27N17O3\SATYA\23-Jan-2018\
 0\\#p wb97xd/cc-pvdz sp scf=(maxcycles=20)\\Base pair stacking\\0,1\N,
 0,6.62345,4.62716,-8.10872\C,0,7.72291,5.60098,-8.25312\C,0,4.67828,3.
 69433,-7.68041\N,0,5.49466,2.68361,-8.16693\C,0,6.63388,3.28606,-8.405
 5\H,0,7.52343,2.7957,-8.80197\N,0,2.82907,4.8789,-6.82009\C,0,3.612,5.
 96255,-6.83756\H,0,3.14368,6.88032,-6.48453\N,0,4.88062,6.08214,-7.223
 82\C,0,5.3602,4.89798,-7.63879\C,0,3.34102,3.70271,-7.24383\N,0,2.5610
 4,2.61988,-7.22714\H,0,2.89818,1.72839,-7.53177\H,0,1.61365,2.66282,-6
 .90975\H,0,8.00553,5.64702,-9.21135\H,0,7.41177,6.50278,-7.95469\H,0,8
 .49964,5.31559,-7.69166\N,0,2.71662,6.15372,-3.46973\C,0,1.57903,5.406
 66,-3.28046\C,0,2.78336,7.62871,-3.44423\N,0,-1.83342,5.22797,-2.65996
 \H,0,-2.52708,4.51648,-2.5511\H,0,-2.14012,6.17675,-2.57952\N,0,0.3410
 3,5.89063,-3.04132\C,0,-0.5494,4.92441,-2.90292\N,0,-0.25224,3.58599,-
 2.99158\H,0,-0.99715,2.9168,-2.87224\C,0,1.01448,3.06532,-3.23692\O,0,
 1.17548,1.84012,-3.29774\C,0,1.98167,4.09131,-3.38785\N,0,3.34462,4.01
 415,-3.63948\C,0,3.73707,5.25857,-3.67954\H,0,4.76338,5.58053,-3.8593\
 H,0,3.11318,7.9644,-4.3259\H,0,1.87208,7.99847,-3.26786\H,0,3.40714,7.
 92336,-2.72112\H,0,-5.24615,0.12458,-2.82507\H,0,-4.79224,-0.16084,-1.
 14663\H,0,-4.38365,1.37009,-1.92165\H,0,-1.80088,-3.18482,-3.3947\C,0,
 -1.8946,-2.11864,-3.18804\O,0,0.36579,-1.63005,-3.71625\C,0,-0.75368,-
 1.27064,-3.35239\H,0,-0.19796,0.69047,-3.16918\N,0,-0.98059,0.06015,-3
 .06472\O,0,-2.26269,1.81975,-2.41877\C,0,-2.1591,0.62781,-2.64948\H,0,
 -3.95468,-2.19602,-2.64408\C,0,-3.05767,-1.59432,-2.78435\C,0,-4.49294
 ,0.30647,-2.07297\N,0,-3.213,-0.25439,-2.51448\H,0,-4.63154,5.88754,-4
 .36972\H,0,-3.12078,6.00827,-3.76546\H,0,-4.27362,5.21274,-2.92751\H,0
 ,-0.38402,0.42656,-7.05333\H,0,-2.04776,0.22949,-6.73204\N,0,-1.2283,0
 .80021,-6.66898\C,0,-1.26102,2.00585,-6.09755\C,0,-2.29819,3.83564,-4.
 98494\N,0,-1.18225,4.58004,-4.9144\H,0,0.7918,4.47278,-5.45498\C,0,-0.
 15662,3.93747,-5.46945\N,0,-0.12182,2.7299,-6.0423\H,0,-5.41318,3.0792
 1,-4.56442\C,0,-4.35387,3.0898,-4.82267\N,0,-3.72609,2.1152,-5.434\C,0
 ,-2.42179,2.57521,-5.54313\C,0,-3.92389,5.41807,-3.84167\N,0,-3.55046,
 4.16235,-4.52116\\Version=EM64L-G16RevA.03\State=1-A\HF=-2048.6493635\
 RMSD=8.288e-09\Dipole=-3.6413553,1.0257923,0.4457318\Quadrupole=30.407
 0355,-9.3423179,-21.0647176,22.7846987,-25.0094974,5.4520412\PG=C01 [X
 (C23H27N17O3)]\\@


 Life may have no meaning.  Or even worse, it may have a
 meaning of which I disapprove.
                                 -- Ashleigh Brilliant
 Job cpu time:       0 days  6 hours  8 minutes 21.4 seconds.
 Elapsed time:       0 days  0 hours 11 minutes 54.3 seconds.
 File lengths (MBytes):  RWF=    298 Int=      0 D2E=      0 Chk=     33 Scr=      1
 Normal termination of Gaussian 16 at Tue Jan 23 22:06:10 2018.
