 Entering Gaussian System, Link 0=g16
 Input=str45.-20.0.5.com
 Output=str45.-20.0.5.log
 Initial command:
 /share/apps/g16/l1.exe "/state/partition1/scr/Gau-23308.inp" -scrdir="/state/partition1/scr/"
 Entering Link 1 = /share/apps/g16/l1.exe PID=     23309.
  
 Copyright (c) 1988,1990,1992,1993,1995,1998,2003,2009,2016,
            Gaussian, Inc.  All Rights Reserved.
  
 This is part of the Gaussian(R) 16 program.  It is based on
 the Gaussian(R) 09 system (copyright 2009, Gaussian, Inc.),
 the Gaussian(R) 03 system (copyright 2003, Gaussian, Inc.),
 the Gaussian(R) 98 system (copyright 1998, Gaussian, Inc.),
 the Gaussian(R) 94 system (copyright 1995, Gaussian, Inc.),
 the Gaussian 92(TM) system (copyright 1992, Gaussian, Inc.),
 the Gaussian 90(TM) system (copyright 1990, Gaussian, Inc.),
 the Gaussian 88(TM) system (copyright 1988, Gaussian, Inc.),
 the Gaussian 86(TM) system (copyright 1986, Carnegie Mellon
 University), and the Gaussian 82(TM) system (copyright 1983,
 Carnegie Mellon University). Gaussian is a federally registered
 trademark of Gaussian, Inc.
  
 This software contains proprietary and confidential information,
 including trade secrets, belonging to Gaussian, Inc.
  
 This software is provided under written license and may be
 used, copied, transmitted, or stored only in accord with that
 written license.
  
 The following legend is applicable only to US Government
 contracts under FAR:
  
                    RESTRICTED RIGHTS LEGEND
  
 Use, reproduction and disclosure by the US Government is
 subject to restrictions as set forth in subparagraphs (a)
 and (c) of the Commercial Computer Software - Restricted
 Rights clause in FAR 52.227-19.
  
 Gaussian, Inc.
 340 Quinnipiac St., Bldg. 40, Wallingford CT 06492
  
  
 ---------------------------------------------------------------
 Warning -- This program may not be used in any manner that
 competes with the business of Gaussian, Inc. or will provide
 assistance to any competitor of Gaussian, Inc.  The licensee
 of this program is prohibited from giving any competitor of
 Gaussian, Inc. access to this program.  By using this program,
 the user acknowledges that Gaussian, Inc. is engaged in the
 business of creating and licensing software in the field of
 computational chemistry and represents and warrants to the
 licensee that it is not a competitor of Gaussian, Inc. and that
 it will not use this program in any manner prohibited above.
 ---------------------------------------------------------------
  

 Cite this work as:
 Gaussian 16, Revision A.03,
 M. J. Frisch, G. W. Trucks, H. B. Schlegel, G. E. Scuseria, 
 M. A. Robb, J. R. Cheeseman, G. Scalmani, V. Barone, 
 G. A. Petersson, H. Nakatsuji, X. Li, M. Caricato, A. V. Marenich, 
 J. Bloino, B. G. Janesko, R. Gomperts, B. Mennucci, H. P. Hratchian, 
 J. V. Ortiz, A. F. Izmaylov, J. L. Sonnenberg, D. Williams-Young, 
 F. Ding, F. Lipparini, F. Egidi, J. Goings, B. Peng, A. Petrone, 
 T. Henderson, D. Ranasinghe, V. G. Zakrzewski, J. Gao, N. Rega, 
 G. Zheng, W. Liang, M. Hada, M. Ehara, K. Toyota, R. Fukuda, 
 J. Hasegawa, M. Ishida, T. Nakajima, Y. Honda, O. Kitao, H. Nakai, 
 T. Vreven, K. Throssell, J. A. Montgomery, Jr., J. E. Peralta, 
 F. Ogliaro, M. J. Bearpark, J. J. Heyd, E. N. Brothers, K. N. Kudin, 
 V. N. Staroverov, T. A. Keith, R. Kobayashi, J. Normand, 
 K. Raghavachari, A. P. Rendell, J. C. Burant, S. S. Iyengar, 
 J. Tomasi, M. Cossi, J. M. Millam, M. Klene, C. Adamo, R. Cammi, 
 J. W. Ochterski, R. L. Martin, K. Morokuma, O. Farkas, 
 J. B. Foresman, and D. J. Fox, Gaussian, Inc., Wallingford CT, 2016.
 
 ******************************************
 Gaussian 16:  EM64L-G16RevA.03 25-Dec-2016
                24-Jan-2018 
 ******************************************
 %nprocshared=32
 Will use up to   32 processors via shared memory.
 %mem=32GB
 %chk=allatoms_t.chk
 ---------------------------------------
 #p wb97xd/cc-pvdz sp scf=(maxcycles=20)
 ---------------------------------------
 1/38=1,172=1/1;
 2/12=2,17=6,18=5,40=1/2;
 3/5=16,11=2,25=1,30=1,74=-58/1,2,3;
 4//1;
 5/5=2,7=20,38=5/2;
 6/7=2,8=2,9=2,10=2,28=1/1;
 99/5=1,9=1/99;
 Leave Link    1 at Wed Jan 24 00:01:20 2018, MaxMem=  4294967296 cpu:               2.7 elap:               0.1
 (Enter /share/apps/g16/l101.exe)
 ------------------
 Base pair stacking
 ------------------
 Symbolic Z-matrix:
 Charge =  0 Multiplicity = 1
 N                     2.90815   1.58879  -7.65129 
 C                     4.01572   2.55037  -7.81457 
 C                     0.99073   0.65565  -7.11273 
 N                     1.72076  -0.31593  -7.78191 
 C                     2.84672   0.28514  -8.07959 
 H                     3.67474  -0.17958  -8.61566 
 N                    -0.72176   1.78231  -5.94613 
 C                     0.08773   2.84639  -5.93909 
 H                    -0.31306   3.73231  -5.4484 
 N                     1.31221   2.97978  -6.4448 
 C                     1.70962   1.83503  -7.02449 
 C                    -0.29285   0.64575  -6.53717 
 N                    -1.09946  -0.4175   -6.54522 
 H                    -0.82323  -1.27964  -6.9714 
 H                    -2.00685  -0.38854  -6.12577 
 H                     4.19817   2.68858  -8.78811 
 H                     3.765     3.42289  -7.39626 
 H                     4.8377    2.19376  -7.37051 
 N                     1.64417   3.86319  -3.36246 
 C                     0.51931   3.11487  -3.11192 
 C                     1.72134   5.33646  -3.29751 
 N                    -2.83881   2.92985  -2.24558 
 H                    -3.5267    2.21791  -2.10706 
 H                    -3.13308   3.87685  -2.11402 
 N                    -0.69468   3.59586  -2.76708 
 C                    -1.57812   2.62913  -2.5922 
 N                    -1.29627   1.29297  -2.743 
 H                    -2.03425   0.62317  -2.58895 
 C                    -0.05431   0.77538  -3.09725 
 O                     0.09448  -0.44798  -3.20678 
 C                     0.90511   1.80194  -3.28852 
 N                     2.2452    1.7275   -3.6428 
 C                     2.64097   2.97112  -3.67432 
 H                     3.65303   3.29465  -3.91994 
 H                     1.98695   5.69768  -4.19069 
 H                     0.82783   5.704    -3.04292 
 H                     2.3987    5.60661  -2.61411 
 H                    -6.28455  -2.15358  -2.31086 
 H                    -5.70928  -2.49176  -0.6801 
 H                    -5.35015  -0.93939  -1.43678 
 H                    -2.91057  -5.45667  -3.23414 
 C                    -2.98242  -4.39696  -2.98903 
 O                    -0.7645   -3.90077  -3.66854 
 C                    -1.8518   -3.54852  -3.21193 
 H                    -1.27244  -1.59597  -3.0114 
 N                    -2.04891  -2.22631  -2.86821 
 O                    -3.2692   -0.48255  -2.07612 
 C                    -3.19004  -1.66726  -2.34972 
 H                    -4.99698  -4.48334  -2.29629 
 C                    -4.10927  -3.88094  -2.48452 
 C                    -5.47664  -1.99749  -1.61158 
 N                    -4.23626  -2.54931  -2.16357 
 H                    -7.85204   2.6822   -2.62473 
 H                    -6.28354   2.71063  -2.17628 
 H                    -7.36643   1.8565   -1.30342 
 H                    -4.07579  -2.55849  -6.2772 
 H                    -5.70219  -2.75449  -5.80129 
 N                    -4.86362  -2.20951  -5.76958 
 C                    -4.79984  -1.06822  -5.08069 
 C                    -5.65914   0.6583   -3.68696 
 N                    -4.51977   1.36939  -3.66222 
 H                    -2.61703   1.27902  -4.41852 
 C                    -3.57765   0.76683  -4.38486 
 N                    -3.63957  -0.37626  -5.07558 
 H                    -8.7349   -0.0755   -3.01361 
 C                    -7.70846  -0.05948  -3.38116 
 N                    -7.17782  -0.97865  -4.15007 
 C                    -5.8786   -0.53574  -4.35152 
 C                    -7.10782   2.14731  -2.22469 
 N                    -6.84569   0.96053  -3.06186 
 
 ITRead=  0  0  0  0  0  0  0  0  0  0  0  0  0  0  0  0  0  0  0  0
 ITRead=  0  0  0  0  0  0  0  0  0  0  0  0  0  0  0  0  0  0  0  0
 ITRead=  0  0  0  0  0  0  0  0  0  0  0  0  0  0  0  0  0  0  0  0
 ITRead=  0  0  0  0  0  0  0  0  0  0
 MicOpt= -1 -1 -1 -1 -1 -1 -1 -1 -1 -1 -1 -1 -1 -1 -1 -1 -1 -1 -1 -1
 MicOpt= -1 -1 -1 -1 -1 -1 -1 -1 -1 -1 -1 -1 -1 -1 -1 -1 -1 -1 -1 -1
 MicOpt= -1 -1 -1 -1 -1 -1 -1 -1 -1 -1 -1 -1 -1 -1 -1 -1 -1 -1 -1 -1
 MicOpt= -1 -1 -1 -1 -1 -1 -1 -1 -1 -1
 NAtoms=     70 NQM=       70 NQMF=       0 NMMI=      0 NMMIF=      0
                NMic=       0 NMicF=      0.
                    Isotopes and Nuclear Properties:
 (Nuclear quadrupole moments (NQMom) in fm**2, nuclear magnetic moments (NMagM)
  in nuclear magnetons)

  Atom         1           2           3           4           5           6           7           8           9          10
 IAtWgt=          14          12          12          14          12           1          14          12           1          14
 AtmWgt=  14.0030740  12.0000000  12.0000000  14.0030740  12.0000000   1.0078250  14.0030740  12.0000000   1.0078250  14.0030740
 NucSpn=           2           0           0           2           0           1           2           0           1           2
 AtZEff=  -0.0000000  -0.0000000  -0.0000000  -0.0000000  -0.0000000  -0.0000000  -0.0000000  -0.0000000  -0.0000000  -0.0000000
 NQMom=    2.0440000   0.0000000   0.0000000   2.0440000   0.0000000   0.0000000   2.0440000   0.0000000   0.0000000   2.0440000
 NMagM=    0.4037610   0.0000000   0.0000000   0.4037610   0.0000000   2.7928460   0.4037610   0.0000000   2.7928460   0.4037610
 AtZNuc=   7.0000000   6.0000000   6.0000000   7.0000000   6.0000000   1.0000000   7.0000000   6.0000000   1.0000000   7.0000000

  Atom        11          12          13          14          15          16          17          18          19          20
 IAtWgt=          12          12          14           1           1           1           1           1          14          12
 AtmWgt=  12.0000000  12.0000000  14.0030740   1.0078250   1.0078250   1.0078250   1.0078250   1.0078250  14.0030740  12.0000000
 NucSpn=           0           0           2           1           1           1           1           1           2           0
 AtZEff=  -0.0000000  -0.0000000  -0.0000000  -0.0000000  -0.0000000  -0.0000000  -0.0000000  -0.0000000  -0.0000000  -0.0000000
 NQMom=    0.0000000   0.0000000   2.0440000   0.0000000   0.0000000   0.0000000   0.0000000   0.0000000   2.0440000   0.0000000
 NMagM=    0.0000000   0.0000000   0.4037610   2.7928460   2.7928460   2.7928460   2.7928460   2.7928460   0.4037610   0.0000000
 AtZNuc=   6.0000000   6.0000000   7.0000000   1.0000000   1.0000000   1.0000000   1.0000000   1.0000000   7.0000000   6.0000000

  Atom        21          22          23          24          25          26          27          28          29          30
 IAtWgt=          12          14           1           1          14          12          14           1          12          16
 AtmWgt=  12.0000000  14.0030740   1.0078250   1.0078250  14.0030740  12.0000000  14.0030740   1.0078250  12.0000000  15.9949146
 NucSpn=           0           2           1           1           2           0           2           1           0           0
 AtZEff=  -0.0000000  -0.0000000  -0.0000000  -0.0000000  -0.0000000  -0.0000000  -0.0000000  -0.0000000  -0.0000000  -0.0000000
 NQMom=    0.0000000   2.0440000   0.0000000   0.0000000   2.0440000   0.0000000   2.0440000   0.0000000   0.0000000   0.0000000
 NMagM=    0.0000000   0.4037610   2.7928460   2.7928460   0.4037610   0.0000000   0.4037610   2.7928460   0.0000000   0.0000000
 AtZNuc=   6.0000000   7.0000000   1.0000000   1.0000000   7.0000000   6.0000000   7.0000000   1.0000000   6.0000000   8.0000000

  Atom        31          32          33          34          35          36          37          38          39          40
 IAtWgt=          12          14          12           1           1           1           1           1           1           1
 AtmWgt=  12.0000000  14.0030740  12.0000000   1.0078250   1.0078250   1.0078250   1.0078250   1.0078250   1.0078250   1.0078250
 NucSpn=           0           2           0           1           1           1           1           1           1           1
 AtZEff=  -0.0000000  -0.0000000  -0.0000000  -0.0000000  -0.0000000  -0.0000000  -0.0000000  -0.0000000  -0.0000000  -0.0000000
 NQMom=    0.0000000   2.0440000   0.0000000   0.0000000   0.0000000   0.0000000   0.0000000   0.0000000   0.0000000   0.0000000
 NMagM=    0.0000000   0.4037610   0.0000000   2.7928460   2.7928460   2.7928460   2.7928460   2.7928460   2.7928460   2.7928460
 AtZNuc=   6.0000000   7.0000000   6.0000000   1.0000000   1.0000000   1.0000000   1.0000000   1.0000000   1.0000000   1.0000000

  Atom        41          42          43          44          45          46          47          48          49          50
 IAtWgt=           1          12          16          12           1          14          16          12           1          12
 AtmWgt=   1.0078250  12.0000000  15.9949146  12.0000000   1.0078250  14.0030740  15.9949146  12.0000000   1.0078250  12.0000000
 NucSpn=           1           0           0           0           1           2           0           0           1           0
 AtZEff=  -0.0000000  -0.0000000  -0.0000000  -0.0000000  -0.0000000  -0.0000000  -0.0000000  -0.0000000  -0.0000000  -0.0000000
 NQMom=    0.0000000   0.0000000   0.0000000   0.0000000   0.0000000   2.0440000   0.0000000   0.0000000   0.0000000   0.0000000
 NMagM=    2.7928460   0.0000000   0.0000000   0.0000000   2.7928460   0.4037610   0.0000000   0.0000000   2.7928460   0.0000000
 AtZNuc=   1.0000000   6.0000000   8.0000000   6.0000000   1.0000000   7.0000000   8.0000000   6.0000000   1.0000000   6.0000000

  Atom        51          52          53          54          55          56          57          58          59          60
 IAtWgt=          12          14           1           1           1           1           1          14          12          12
 AtmWgt=  12.0000000  14.0030740   1.0078250   1.0078250   1.0078250   1.0078250   1.0078250  14.0030740  12.0000000  12.0000000
 NucSpn=           0           2           1           1           1           1           1           2           0           0
 AtZEff=  -0.0000000  -0.0000000  -0.0000000  -0.0000000  -0.0000000  -0.0000000  -0.0000000  -0.0000000  -0.0000000  -0.0000000
 NQMom=    0.0000000   2.0440000   0.0000000   0.0000000   0.0000000   0.0000000   0.0000000   2.0440000   0.0000000   0.0000000
 NMagM=    0.0000000   0.4037610   2.7928460   2.7928460   2.7928460   2.7928460   2.7928460   0.4037610   0.0000000   0.0000000
 AtZNuc=   6.0000000   7.0000000   1.0000000   1.0000000   1.0000000   1.0000000   1.0000000   7.0000000   6.0000000   6.0000000

  Atom        61          62          63          64          65          66          67          68          69          70
 IAtWgt=          14           1          12          14           1          12          14          12          12          14
 AtmWgt=  14.0030740   1.0078250  12.0000000  14.0030740   1.0078250  12.0000000  14.0030740  12.0000000  12.0000000  14.0030740
 NucSpn=           2           1           0           2           1           0           2           0           0           2
 AtZEff=  -0.0000000  -0.0000000  -0.0000000  -0.0000000  -0.0000000  -0.0000000  -0.0000000  -0.0000000  -0.0000000  -0.0000000
 NQMom=    2.0440000   0.0000000   0.0000000   2.0440000   0.0000000   0.0000000   2.0440000   0.0000000   0.0000000   2.0440000
 NMagM=    0.4037610   2.7928460   0.0000000   0.4037610   2.7928460   0.0000000   0.4037610   0.0000000   0.0000000   0.4037610
 AtZNuc=   7.0000000   1.0000000   6.0000000   7.0000000   1.0000000   6.0000000   7.0000000   6.0000000   6.0000000   7.0000000
 Leave Link  101 at Wed Jan 24 00:01:20 2018, MaxMem=  4294967296 cpu:               6.6 elap:               0.2
 (Enter /share/apps/g16/l202.exe)
 Stoichiometry    C23H27N17O3
 Framework group  C1[X(C23H27N17O3)]
 Deg. of freedom   204
 Full point group                 C1      NOp   1
 Largest Abelian subgroup         C1      NOp   1
 Largest concise Abelian subgroup C1      NOp   1
                         Standard orientation:                         
 ---------------------------------------------------------------------
 Center     Atomic      Atomic             Coordinates (Angstroms)
 Number     Number       Type             X           Y           Z
 ---------------------------------------------------------------------
      1          7           0        5.502270   -1.657978   -1.232740
      2          6           0        6.894485   -1.174667   -1.154280
      3          6           0        3.308016   -1.750578   -1.350953
      4          7           0        3.751775   -3.064969   -1.337901
      5          6           0        5.055974   -2.956573   -1.267204
      6          1           0        5.747407   -3.799167   -1.237038
      7          7           0        1.926875    0.160437   -1.409347
      8          6           0        3.051053    0.881169   -1.343303
      9          1           0        2.911487    1.961346   -1.341981
     10          7           0        4.315788    0.469843   -1.278944
     11          6           0        4.375564   -0.872094   -1.286657
     12          6           0        2.020593   -1.187243   -1.415294
     13          7           0        0.899544   -1.908418   -1.481175
     14          1           0        0.921479   -2.908762   -1.488142
     15          1           0        0.000052   -1.473610   -1.525796
     16          1           0        7.408221   -1.503909   -1.946647
     17          1           0        6.901140   -0.175158   -1.145783
     18          1           0        7.321426   -1.516272   -0.317000
     19          7           0        4.005445    2.428211    1.262692
     20          6           0        2.657377    2.171556    1.192669
     21          6           0        4.645988    3.720552    0.946056
     22          7           0       -0.577361    3.242234    0.520458
     23          1           0       -1.499772    2.857289    0.535125
     24          1           0       -0.489565    4.199559    0.243813
     25          7           0        1.699160    3.049776    0.825809
     26          6           0        0.494330    2.508427    0.856500
     27          7           0        0.244840    1.206800    1.218474
     28          1           0       -0.708519    0.878083    1.212976
     29          6           0        1.215296    0.285473    1.599563
     30          8           0        0.883937   -0.866034    1.907748
     31          6           0        2.514762    0.852479    1.571500
     32          7           0        3.748464    0.292293    1.873277
     33          6           0        4.600619    1.261442    1.676302
     34          1           0        5.678700    1.178817    1.818365
     35          1           0        5.296454    3.597476    0.197360
     36          1           0        3.945942    4.379058    0.672987
     37          1           0        5.127166    4.062421    1.752546
     38          1           0       -5.575122   -0.323692    0.361726
     39          1           0       -5.719968   -0.094547    2.102757
     40          1           0       -4.550762    0.853854    1.183581
     41          1           0       -3.715829   -4.465776    1.953190
     42          6           0       -3.426096   -3.421064    1.839800
     43          8           0       -1.105675   -3.846218    2.088795
     44          6           0       -2.041231   -3.067119    1.908424
     45          1           0       -0.816756   -1.431236    1.794983
     46          7           0       -1.783997   -1.719989    1.752516
     47          8           0       -2.376598    0.446616    1.418062
     48          6           0       -2.701641   -0.720850    1.544680
     49          1           0       -5.410178   -2.685771    1.577953
     50          6           0       -4.344473   -2.468967    1.638077
     51          6           0       -5.032406   -0.108770    1.270209
     52          7           0       -4.016009   -1.141279    1.490665
     53          1           0       -4.878035    4.174315   -1.923511
     54          1           0       -3.654181    3.976203   -0.862831
     55          1           0       -5.201086    3.873493   -0.352332
     56          1           0       -2.610267   -2.891186   -1.960350
     57          1           0       -4.237223   -2.442195   -2.208354
     58          7           0       -3.304968   -2.171806   -1.965458
     59          6           0       -3.002655   -0.907799   -1.662023
     60          6           0       -3.477206    1.398454   -1.318875
     61          7           0       -2.216724    1.732616   -0.996470
     62          1           0       -0.380592    0.845927   -0.789155
     63          6           0       -1.424949    0.662936   -1.038347
     64          7           0       -1.725820   -0.603883   -1.342042
     65          1           0       -6.630418    1.837007   -1.881981
     66          6           0       -5.626286    1.431912   -1.753352
     67          7           0       -5.302310    0.173936   -1.927166
     68          6           0       -3.942400    0.138993   -1.654864
     69          6           0       -4.576364    3.679189   -1.108742
     70          7           0       -4.570488    2.229374   -1.384448
 ---------------------------------------------------------------------
 Rotational constants (GHZ):           0.1383678           0.0588615           0.0520469
 Leave Link  202 at Wed Jan 24 00:01:21 2018, MaxMem=  4294967296 cpu:               4.5 elap:               0.2
 (Enter /share/apps/g16/l301.exe)
 Standard basis: CC-pVDZ (5D, 7F)
 Ernie: Thresh=  0.10000D-02 Tol=  0.10000D-05 Strict=F.
 Ernie:  86 primitive shells out of 1081 were deleted.
 There are   780 symmetry adapted cartesian basis functions of A   symmetry.
 There are   737 symmetry adapted basis functions of A   symmetry.
   737 basis functions,  1608 primitive gaussians,   780 cartesian basis functions
   154 alpha electrons      154 beta electrons
       nuclear repulsion energy      5579.5401173426 Hartrees.
 IExCor= 4639 DFT=T Ex+Corr=wB97XD ExCW=0 ScaHFX=  1.000000
 ScaDFX=  1.000000  1.000000  1.000000  1.000000 ScalE2=  1.000000  1.000000
 IRadAn=      5 IRanWt=     -1 IRanGd=            0 ICorTp=0 IEmpDi=121
 HFx  wShort=  0.000000 wLong=  0.200000 cFull=  0.222036 cShort=  0.000000 cLong=  0.777964
 DFx  wShort=  0.000000 wLong=  0.200000 cFull=  0.000000 cShort=  0.000000 cLong=  1.000000
 NAtoms=   70 NActive=   70 NUniq=   70 SFac= 1.00D+00 NAtFMM=   60 NAOKFM=T Big=T
 Integral buffers will be    131072 words long.
 Raffenetti 2 integral format.
 Two-electron integral symmetry is turned on.
 R6Disp:  Grimme-D2 Dispersion energy=       -0.0746062961 Hartrees.
 Nuclear repulsion after empirical dispersion term =     5579.4655110465 Hartrees.
 Leave Link  301 at Wed Jan 24 00:01:21 2018, MaxMem=  4294967296 cpu:               2.1 elap:               0.1
 (Enter /share/apps/g16/l302.exe)
 NPDir=0 NMtPBC=     1 NCelOv=     1 NCel=       1 NClECP=     1 NCelD=      1
         NCelK=      1 NCelE2=     1 NClLst=     1 CellRange=     0.0.
 One-electron integrals computed using PRISM.
 One-electron integral symmetry used in STVInt
 NBasis=   737 RedAO= T EigKep=  6.82D-04  NBF=   737
 NBsUse=   737 1.00D-06 EigRej= -1.00D+00 NBFU=   737
 Precomputing XC quadrature grid using
 IXCGrd= 4 IRadAn=           5 IRanWt=          -1 IRanGd=           0 AccXCQ= 0.00D+00.
 Generated NRdTot=       0 NPtTot=           0 NUsed=           0 NTot=          32
 NSgBfM=   770   769   770   770   770 MxSgAt=    70 MxSgA2=    70.
 Leave Link  302 at Wed Jan 24 00:01:25 2018, MaxMem=  4294967296 cpu:             134.5 elap:               4.2
 (Enter /share/apps/g16/l303.exe)
 DipDrv:  MaxL=1.
 Leave Link  303 at Wed Jan 24 00:01:25 2018, MaxMem=  4294967296 cpu:              12.6 elap:               0.4
 (Enter /share/apps/g16/l401.exe)
 ExpMin= 1.22D-01 ExpMax= 1.17D+04 ExpMxC= 4.01D+02 IAcc=3 IRadAn=         5 AccDes= 0.00D+00
 Harris functional with IExCor= 4639 and IRadAn=       5 diagonalized for initial guess.
 HarFok:  IExCor= 4639 AccDes= 0.00D+00 IRadAn=         5 IDoV= 1 UseB2=F ITyADJ=14
 ICtDFT=  3500011 ScaDFX=  1.000000  1.000000  1.000000  1.000000
 FoFCou: FMM=F IPFlag=           0 FMFlag=      100000 FMFlg1=        2001
         NFxFlg=           0 DoJE=T BraDBF=F KetDBF=T FulRan=T
         wScrn=  0.000000 ICntrl=       500 IOpCl=  0 I1Cent=   200000004 NGrid=           0
         NMat0=    1 NMatS0=      1 NMatT0=    0 NMatD0=    1 NMtDS0=    0 NMtDT0=    0
 Petite list used in FoFCou.
 Harris En= -1963.86020732931    
 JPrj=0 DoOrth=F DoCkMO=F.
 Leave Link  401 at Wed Jan 24 00:01:38 2018, MaxMem=  4294967296 cpu:             409.8 elap:              12.8
 (Enter /share/apps/g16/l502.exe)
 Integral symmetry usage will be decided dynamically.
 Closed shell SCF:
 Using DIIS extrapolation, IDIIS=  1040.
 NGot=  4294967296 LenX=  4293717438 LenY=  4293108258
 Requested convergence on RMS density matrix=1.00D-08 within  20 cycles.
 Requested convergence on MAX density matrix=1.00D-06.
 Requested convergence on             energy=1.00D-06.
 No special actions if energy rises.
 Fock matrices will be formed incrementally for  20 cycles.
 Integral accuracy reduced to 1.0D-05 until final iterations.

 Cycle   1  Pass 0  IDiag  1:
 FoFJK:  IHMeth= 1 ICntrl=       0 DoSepK=T KAlg= 0 I1Cent=           0 FoldK=F
 IRaf=         1 NMat=       1 IRICut=       1 DoRegI=T DoRafI=F ISym2E= 0 IDoP0=0 IntGTp=1.
 FoFCou: FMM=T IPFlag=           0 FMFlag=      100000 FMFlg1=        2001
         NFxFlg=           0 DoJE=T BraDBF=F KetDBF=F FulRan=T
         wScrn=  0.000000 ICntrl=       500 IOpCl=  0 I1Cent=           0 NGrid=           0
         NMat0=    1 NMatS0=      1 NMatT0=    0 NMatD0=    1 NMtDS0=    0 NMtDT0=    0
 Symmetry not used in FoFCou.
 FMM levels:  10  Number of levels for PrismC:   9
 E= -2048.30356012792    
 DIIS: error= 2.24D-02 at cycle   1 NSaved=   1.
 NSaved= 1 IEnMin= 1 EnMin= -2048.30356012792     IErMin= 1 ErrMin= 2.24D-02
 ErrMax= 2.24D-02  0.00D+00 EMaxC= 1.00D-01 BMatC= 8.28D-01 BMatP= 8.28D-01
 IDIUse=3 WtCom= 7.76D-01 WtEn= 2.24D-01
 Coeff-Com:  0.100D+01
 Coeff-En:   0.100D+01
 Coeff:      0.100D+01
 Gap=     0.245 Goal=   None    Shift=    0.000
 GapD=    0.245 DampG=1.000 DampE=0.500 DampFc=0.5000 IDamp=-1.
 Damping current iteration by 5.00D-01
 RMSDP=1.55D-03 MaxDP=1.32D-01              OVMax= 2.12D-01

 Cycle   2  Pass 0  IDiag  1:
 RMSU=  7.72D-04    CP:  9.98D-01
 E= -2048.50043943849     Delta-E=       -0.196879310567 Rises=F Damp=T
 DIIS: error= 1.25D-02 at cycle   2 NSaved=   2.
 NSaved= 2 IEnMin= 2 EnMin= -2048.50043943849     IErMin= 2 ErrMin= 1.25D-02
 ErrMax= 1.25D-02  0.00D+00 EMaxC= 1.00D-01 BMatC= 1.44D-01 BMatP= 8.28D-01
 IDIUse=3 WtCom= 8.75D-01 WtEn= 1.25D-01
 Coeff-Com: -0.203D+00 0.120D+01
 Coeff-En:   0.000D+00 0.100D+01
 Coeff:     -0.178D+00 0.118D+01
 Gap=     0.293 Goal=   None    Shift=    0.000
 RMSDP=5.79D-04 MaxDP=3.60D-02 DE=-1.97D-01 OVMax= 1.28D-01

 Cycle   3  Pass 0  IDiag  1:
 RMSU=  5.64D-04    CP:  9.94D-01  1.16D+00
 E= -2048.68032853082     Delta-E=       -0.179889092332 Rises=F Damp=F
 DIIS: error= 8.49D-03 at cycle   3 NSaved=   3.
 NSaved= 3 IEnMin= 3 EnMin= -2048.68032853082     IErMin= 3 ErrMin= 8.49D-03
 ErrMax= 8.49D-03  0.00D+00 EMaxC= 1.00D-01 BMatC= 5.98D-02 BMatP= 1.44D-01
 IDIUse=3 WtCom= 9.15D-01 WtEn= 8.49D-02
 Coeff-Com: -0.231D+00 0.544D+00 0.687D+00
 Coeff-En:   0.000D+00 0.000D+00 0.100D+01
 Coeff:     -0.211D+00 0.497D+00 0.714D+00
 Gap=     0.274 Goal=   None    Shift=    0.000
 RMSDP=3.45D-04 MaxDP=3.56D-02 DE=-1.80D-01 OVMax= 6.71D-02

 Cycle   4  Pass 0  IDiag  1:
 RMSU=  2.00D-04    CP:  9.95D-01  1.44D+00  6.78D-01
 E= -2048.72478743010     Delta-E=       -0.044458899281 Rises=F Damp=F
 DIIS: error= 3.21D-03 at cycle   4 NSaved=   4.
 NSaved= 4 IEnMin= 4 EnMin= -2048.72478743010     IErMin= 4 ErrMin= 3.21D-03
 ErrMax= 3.21D-03  0.00D+00 EMaxC= 1.00D-01 BMatC= 9.19D-03 BMatP= 5.98D-02
 IDIUse=3 WtCom= 9.68D-01 WtEn= 3.21D-02
 Coeff-Com: -0.948D-01 0.184D+00 0.385D+00 0.526D+00
 Coeff-En:   0.000D+00 0.000D+00 0.716D-01 0.928D+00
 Coeff:     -0.918D-01 0.178D+00 0.375D+00 0.539D+00
 Gap=     0.276 Goal=   None    Shift=    0.000
 RMSDP=1.26D-04 MaxDP=1.30D-02 DE=-4.45D-02 OVMax= 1.30D-02

 Cycle   5  Pass 0  IDiag  1:
 RMSU=  6.16D-05    CP:  9.94D-01  1.41D+00  8.11D-01  6.12D-01
 E= -2048.73218855676     Delta-E=       -0.007401126661 Rises=F Damp=F
 DIIS: error= 7.55D-04 at cycle   5 NSaved=   5.
 NSaved= 5 IEnMin= 5 EnMin= -2048.73218855676     IErMin= 5 ErrMin= 7.55D-04
 ErrMax= 7.55D-04  0.00D+00 EMaxC= 1.00D-01 BMatC= 2.97D-04 BMatP= 9.19D-03
 IDIUse=3 WtCom= 9.92D-01 WtEn= 7.55D-03
 Coeff-Com: -0.241D-01 0.413D-01 0.124D+00 0.241D+00 0.618D+00
 Coeff-En:   0.000D+00 0.000D+00 0.000D+00 0.000D+00 0.100D+01
 Coeff:     -0.240D-01 0.410D-01 0.123D+00 0.239D+00 0.621D+00
 Gap=     0.276 Goal=   None    Shift=    0.000
 RMSDP=2.56D-05 MaxDP=2.34D-03 DE=-7.40D-03 OVMax= 2.76D-03

 Failed to achieve initial convergence to 1.0D-08 in  6 cycles.
 Switch to full accuracy anyway.
 Cycle   6  Pass 1  IDiag  1:
 E= -2048.73245066422     Delta-E=       -0.000262107454 Rises=F Damp=F
 DIIS: error= 2.32D-04 at cycle   1 NSaved=   1.
 NSaved= 1 IEnMin= 1 EnMin= -2048.73245066422     IErMin= 1 ErrMin= 2.32D-04
 ErrMax= 2.32D-04  0.00D+00 EMaxC= 1.00D-01 BMatC= 7.96D-05 BMatP= 7.96D-05
 IDIUse=3 WtCom= 9.98D-01 WtEn= 2.32D-03
 Coeff-Com:  0.100D+01
 Coeff-En:   0.100D+01
 Coeff:      0.100D+01
 Gap=     0.276 Goal=   None    Shift=    0.000
 RMSDP=2.56D-05 MaxDP=2.34D-03 DE=-2.62D-04 OVMax= 1.80D-03

 Cycle   7  Pass 1  IDiag  1:
 RMSU=  1.23D-04    CP:  1.00D+00
 E= -2048.73250738458     Delta-E=       -0.000056720364 Rises=F Damp=F
 DIIS: error= 3.47D-04 at cycle   2 NSaved=   2.
 NSaved= 2 IEnMin= 2 EnMin= -2048.73250738458     IErMin= 1 ErrMin= 2.32D-04
 ErrMax= 3.47D-04  0.00D+00 EMaxC= 1.00D-01 BMatC= 4.69D-05 BMatP= 7.96D-05
 IDIUse=3 WtCom= 9.97D-01 WtEn= 3.47D-03
 Coeff-Com:  0.411D+00 0.589D+00
 Coeff-En:   0.000D+00 0.100D+01
 Coeff:      0.409D+00 0.591D+00
 Gap=     0.276 Goal=   None    Shift=    0.000
 RMSDP=1.14D-05 MaxDP=1.39D-03 DE=-5.67D-05 OVMax= 1.34D-03

 Cycle   8  Pass 1  IDiag  1:
 RMSU=  1.10D-05    CP:  1.00D+00  1.02D+00
 E= -2048.73253975870     Delta-E=       -0.000032374119 Rises=F Damp=F
 DIIS: error= 1.40D-04 at cycle   3 NSaved=   3.
 NSaved= 3 IEnMin= 3 EnMin= -2048.73253975870     IErMin= 3 ErrMin= 1.40D-04
 ErrMax= 1.40D-04  0.00D+00 EMaxC= 1.00D-01 BMatC= 1.14D-05 BMatP= 4.69D-05
 IDIUse=3 WtCom= 9.99D-01 WtEn= 1.40D-03
 Coeff-Com: -0.184D-01 0.319D+00 0.700D+00
 Coeff-En:   0.000D+00 0.148D+00 0.852D+00
 Coeff:     -0.184D-01 0.318D+00 0.700D+00
 Gap=     0.276 Goal=   None    Shift=    0.000
 RMSDP=5.79D-06 MaxDP=5.57D-04 DE=-3.24D-05 OVMax= 5.31D-04

 Cycle   9  Pass 1  IDiag  1:
 RMSU=  3.85D-06    CP:  1.00D+00  1.05D+00  7.55D-01
 E= -2048.73254987667     Delta-E=       -0.000010117976 Rises=F Damp=F
 DIIS: error= 2.95D-05 at cycle   4 NSaved=   4.
 NSaved= 4 IEnMin= 4 EnMin= -2048.73254987667     IErMin= 4 ErrMin= 2.95D-05
 ErrMax= 2.95D-05  0.00D+00 EMaxC= 1.00D-01 BMatC= 5.16D-07 BMatP= 1.14D-05
 IDIUse=1 WtCom= 1.00D+00 WtEn= 0.00D+00
 Coeff-Com: -0.293D-01 0.915D-01 0.261D+00 0.676D+00
 Coeff:     -0.293D-01 0.915D-01 0.261D+00 0.676D+00
 Gap=     0.276 Goal=   None    Shift=    0.000
 RMSDP=1.41D-06 MaxDP=1.47D-04 DE=-1.01D-05 OVMax= 3.30D-04

 Cycle  10  Pass 1  IDiag  1:
 RMSU=  1.28D-06    CP:  1.00D+00  1.05D+00  7.86D-01  1.10D+00
 E= -2048.73255070013     Delta-E=       -0.000000823453 Rises=F Damp=F
 DIIS: error= 1.34D-05 at cycle   5 NSaved=   5.
 NSaved= 5 IEnMin= 5 EnMin= -2048.73255070013     IErMin= 5 ErrMin= 1.34D-05
 ErrMax= 1.34D-05  0.00D+00 EMaxC= 1.00D-01 BMatC= 1.19D-07 BMatP= 5.16D-07
 IDIUse=1 WtCom= 1.00D+00 WtEn= 0.00D+00
 Coeff-Com: -0.284D-02-0.543D-01-0.116D+00 0.202D+00 0.972D+00
 Coeff:     -0.284D-02-0.543D-01-0.116D+00 0.202D+00 0.972D+00
 Gap=     0.276 Goal=   None    Shift=    0.000
 RMSDP=1.18D-06 MaxDP=7.55D-05 DE=-8.23D-07 OVMax= 1.83D-04

 Cycle  11  Pass 1  IDiag  1:
 RMSU=  5.07D-07    CP:  1.00D+00  1.06D+00  7.96D-01  1.36D+00  1.16D+00
 E= -2048.73255095215     Delta-E=       -0.000000252023 Rises=F Damp=F
 DIIS: error= 6.50D-06 at cycle   6 NSaved=   6.
 NSaved= 6 IEnMin= 6 EnMin= -2048.73255095215     IErMin= 6 ErrMin= 6.50D-06
 ErrMax= 6.50D-06  0.00D+00 EMaxC= 1.00D-01 BMatC= 2.91D-08 BMatP= 1.19D-07
 IDIUse=1 WtCom= 1.00D+00 WtEn= 0.00D+00
 Coeff-Com:  0.451D-02-0.463D-01-0.114D+00-0.545D-02 0.522D+00 0.639D+00
 Coeff:      0.451D-02-0.463D-01-0.114D+00-0.545D-02 0.522D+00 0.639D+00
 Gap=     0.276 Goal=   None    Shift=    0.000
 RMSDP=3.89D-07 MaxDP=3.82D-05 DE=-2.52D-07 OVMax= 8.29D-05

 Cycle  12  Pass 1  IDiag  1:
 RMSU=  1.94D-07    CP:  1.00D+00  1.06D+00  7.97D-01  1.44D+00  1.30D+00
                    CP:  9.08D-01
 E= -2048.73255099413     Delta-E=       -0.000000041976 Rises=F Damp=F
 DIIS: error= 1.17D-06 at cycle   7 NSaved=   7.
 NSaved= 7 IEnMin= 7 EnMin= -2048.73255099413     IErMin= 7 ErrMin= 1.17D-06
 ErrMax= 1.17D-06  0.00D+00 EMaxC= 1.00D-01 BMatC= 9.63D-10 BMatP= 2.91D-08
 IDIUse=1 WtCom= 1.00D+00 WtEn= 0.00D+00
 Coeff-Com:  0.135D-02-0.105D-01-0.273D-01-0.695D-02 0.945D-01 0.183D+00
 Coeff-Com:  0.765D+00
 Coeff:      0.135D-02-0.105D-01-0.273D-01-0.695D-02 0.945D-01 0.183D+00
 Coeff:      0.765D+00
 Gap=     0.276 Goal=   None    Shift=    0.000
 RMSDP=7.66D-08 MaxDP=5.05D-06 DE=-4.20D-08 OVMax= 1.39D-05

 Cycle  13  Pass 1  IDiag  1:
 RMSU=  5.25D-08    CP:  1.00D+00  1.06D+00  7.97D-01  1.44D+00  1.32D+00
                    CP:  9.90D-01  1.09D+00
 E= -2048.73255099594     Delta-E=       -0.000000001814 Rises=F Damp=F
 DIIS: error= 8.28D-07 at cycle   8 NSaved=   8.
 NSaved= 8 IEnMin= 8 EnMin= -2048.73255099594     IErMin= 8 ErrMin= 8.28D-07
 ErrMax= 8.28D-07  0.00D+00 EMaxC= 1.00D-01 BMatC= 3.62D-10 BMatP= 9.63D-10
 IDIUse=1 WtCom= 1.00D+00 WtEn= 0.00D+00
 Coeff-Com: -0.631D-03 0.822D-02 0.191D-01-0.119D-02-0.109D+00-0.892D-01
 Coeff-Com:  0.393D+00 0.779D+00
 Coeff:     -0.631D-03 0.822D-02 0.191D-01-0.119D-02-0.109D+00-0.892D-01
 Coeff:      0.393D+00 0.779D+00
 Gap=     0.276 Goal=   None    Shift=    0.000
 RMSDP=5.24D-08 MaxDP=3.21D-06 DE=-1.81D-09 OVMax= 9.14D-06

 Cycle  14  Pass 1  IDiag  1:
 RMSU=  2.97D-08    CP:  1.00D+00  1.06D+00  7.96D-01  1.45D+00  1.33D+00
                    CP:  1.03D+00  1.25D+00  1.04D+00
 E= -2048.73255099645     Delta-E=       -0.000000000512 Rises=F Damp=F
 DIIS: error= 1.54D-07 at cycle   9 NSaved=   9.
 NSaved= 9 IEnMin= 9 EnMin= -2048.73255099645     IErMin= 9 ErrMin= 1.54D-07
 ErrMax= 1.54D-07  0.00D+00 EMaxC= 1.00D-01 BMatC= 3.97D-11 BMatP= 3.62D-10
 IDIUse=1 WtCom= 1.00D+00 WtEn= 0.00D+00
 Coeff-Com: -0.449D-03 0.505D-02 0.121D-01 0.105D-02-0.595D-01-0.613D-01
 Coeff-Com:  0.831D-01 0.338D+00 0.682D+00
 Coeff:     -0.449D-03 0.505D-02 0.121D-01 0.105D-02-0.595D-01-0.613D-01
 Coeff:      0.831D-01 0.338D+00 0.682D+00
 Gap=     0.276 Goal=   None    Shift=    0.000
 RMSDP=1.43D-08 MaxDP=8.24D-07 DE=-5.12D-10 OVMax= 2.48D-06

 Cycle  15  Pass 1  IDiag  1:
 RMSU=  9.59D-09    CP:  1.00D+00  1.06D+00  7.96D-01  1.45D+00  1.33D+00
                    CP:  1.04D+00  1.27D+00  1.19D+00  1.10D+00
 E= -2048.73255099630     Delta-E=        0.000000000147 Rises=F Damp=F
 DIIS: error= 9.27D-08 at cycle  10 NSaved=  10.
 NSaved=10 IEnMin= 9 EnMin= -2048.73255099645     IErMin=10 ErrMin= 9.27D-08
 ErrMax= 9.27D-08  0.00D+00 EMaxC= 1.00D-01 BMatC= 4.37D-12 BMatP= 3.97D-11
 IDIUse=1 WtCom= 1.00D+00 WtEn= 0.00D+00
 Coeff-Com: -0.385D-05-0.200D-03-0.355D-03 0.168D-03 0.388D-02-0.540D-04
 Coeff-Com: -0.504D-01-0.547D-01 0.206D+00 0.896D+00
 Coeff:     -0.385D-05-0.200D-03-0.355D-03 0.168D-03 0.388D-02-0.540D-04
 Coeff:     -0.504D-01-0.547D-01 0.206D+00 0.896D+00
 Gap=     0.276 Goal=   None    Shift=    0.000
 RMSDP=7.15D-09 MaxDP=4.25D-07 DE= 1.47D-10 OVMax= 1.36D-06

 SCF Done:  E(RwB97XD) =  -2048.73255100     A.U. after   15 cycles
            NFock= 15  Conv=0.72D-08     -V/T= 2.0053
 KE= 2.037921931020D+03 PE=-1.593987899516D+04 EE= 6.273759002094D+03
 Leave Link  502 at Wed Jan 24 00:13:32 2018, MaxMem=  4294967296 cpu:           22056.2 elap:             713.6
 (Enter /share/apps/g16/l601.exe)
 Copying SCF densities to generalized density rwf, IOpCl= 0 IROHF=0.

 **********************************************************************

            Population analysis using the SCF density.

 **********************************************************************

 Orbital symmetries:
       Occupied  (A) (A) (A) (A) (A) (A) (A) (A) (A) (A) (A) (A)
                 (A) (A) (A) (A) (A) (A) (A) (A) (A) (A) (A) (A)
                 (A) (A) (A) (A) (A) (A) (A) (A) (A) (A) (A) (A)
                 (A) (A) (A) (A) (A) (A) (A) (A) (A) (A) (A) (A)
                 (A) (A) (A) (A) (A) (A) (A) (A) (A) (A) (A) (A)
                 (A) (A) (A) (A) (A) (A) (A) (A) (A) (A) (A) (A)
                 (A) (A) (A) (A) (A) (A) (A) (A) (A) (A) (A) (A)
                 (A) (A) (A) (A) (A) (A) (A) (A) (A) (A) (A) (A)
                 (A) (A) (A) (A) (A) (A) (A) (A) (A) (A) (A) (A)
                 (A) (A) (A) (A) (A) (A) (A) (A) (A) (A) (A) (A)
                 (A) (A) (A) (A) (A) (A) (A) (A) (A) (A) (A) (A)
                 (A) (A) (A) (A) (A) (A) (A) (A) (A) (A) (A) (A)
                 (A) (A) (A) (A) (A) (A) (A) (A) (A) (A)
       Virtual   (A) (A) (A) (A) (A) (A) (A) (A) (A) (A) (A) (A)
                 (A) (A) (A) (A) (A) (A) (A) (A) (A) (A) (A) (A)
                 (A) (A) (A) (A) (A) (A) (A) (A) (A) (A) (A) (A)
                 (A) (A) (A) (A) (A) (A) (A) (A) (A) (A) (A) (A)
                 (A) (A) (A) (A) (A) (A) (A) (A) (A) (A) (A) (A)
                 (A) (A) (A) (A) (A) (A) (A) (A) (A) (A) (A) (A)
                 (A) (A) (A) (A) (A) (A) (A) (A) (A) (A) (A) (A)
                 (A) (A) (A) (A) (A) (A) (A) (A) (A) (A) (A) (A)
                 (A) (A) (A) (A) (A) (A) (A) (A) (A) (A) (A) (A)
                 (A) (A) (A) (A) (A) (A) (A) (A) (A) (A) (A) (A)
                 (A) (A) (A) (A) (A) (A) (A) (A) (A) (A) (A) (A)
                 (A) (A) (A) (A) (A) (A) (A) (A) (A) (A) (A) (A)
                 (A) (A) (A) (A) (A) (A) (A) (A) (A) (A) (A) (A)
                 (A) (A) (A) (A) (A) (A) (A) (A) (A) (A) (A) (A)
                 (A) (A) (A) (A) (A) (A) (A) (A) (A) (A) (A) (A)
                 (A) (A) (A) (A) (A) (A) (A) (A) (A) (A) (A) (A)
                 (A) (A) (A) (A) (A) (A) (A) (A) (A) (A) (A) (A)
                 (A) (A) (A) (A) (A) (A) (A) (A) (A) (A) (A) (A)
                 (A) (A) (A) (A) (A) (A) (A) (A) (A) (A) (A) (A)
                 (A) (A) (A) (A) (A) (A) (A) (A) (A) (A) (A) (A)
                 (A) (A) (A) (A) (A) (A) (A) (A) (A) (A) (A) (A)
                 (A) (A) (A) (A) (A) (A) (A) (A) (A) (A) (A) (A)
                 (A) (A) (A) (A) (A) (A) (A) (A) (A) (A) (A) (A)
                 (A) (A) (A) (A) (A) (A) (A) (A) (A) (A) (A) (A)
                 (A) (A) (A) (A) (A) (A) (A) (A) (A) (A) (A) (A)
                 (A) (A) (A) (A) (A) (A) (A) (A) (A) (A) (A) (A)
                 (A) (A) (A) (A) (A) (A) (A) (A) (A) (A) (A) (A)
                 (A) (A) (A) (A) (A) (A) (A) (A) (A) (A) (A) (A)
                 (A) (A) (A) (A) (A) (A) (A) (A) (A) (A) (A) (A)
                 (A) (A) (A) (A) (A) (A) (A) (A) (A) (A) (A) (A)
                 (A) (A) (A) (A) (A) (A) (A) (A) (A) (A) (A) (A)
                 (A) (A) (A) (A) (A) (A) (A) (A) (A) (A) (A) (A)
                 (A) (A) (A) (A) (A) (A) (A) (A) (A) (A) (A) (A)
                 (A) (A) (A) (A) (A) (A) (A) (A) (A) (A) (A) (A)
                 (A) (A) (A) (A) (A) (A) (A) (A) (A) (A) (A) (A)
                 (A) (A) (A) (A) (A) (A) (A) (A) (A) (A) (A) (A)
                 (A) (A) (A) (A) (A) (A) (A) (A) (A) (A) (A) (A)
                 (A) (A) (A) (A) (A) (A) (A) (A) (A) (A) (A) (A)
                 (A) (A) (A) (A) (A) (A) (A) (A) (A) (A) (A) (A)
                 (A) (A) (A) (A) (A) (A) (A) (A) (A) (A) (A) (A)
                 (A) (A) (A) (A) (A) (A) (A) (A) (A) (A) (A) (A)
                 (A) (A) (A) (A) (A) (A) (A) (A) (A) (A) (A) (A)
                 (A) (A) (A) (A) (A) (A) (A) (A) (A) (A) (A) (A)
                 (A) (A) (A) (A) (A) (A) (A) (A) (A) (A) (A) (A)
                 (A) (A) (A) (A) (A) (A) (A) (A) (A) (A) (A) (A)
                 (A) (A) (A) (A) (A) (A) (A) (A) (A) (A) (A) (A)
                 (A) (A) (A) (A) (A) (A) (A) (A) (A) (A) (A) (A)
                 (A) (A) (A) (A) (A) (A) (A) (A) (A) (A) (A) (A)
                 (A) (A) (A) (A) (A) (A) (A)
 The electronic state is 1-A.
 Alpha  occ. eigenvalues --  -19.25317 -19.21530 -19.20307 -14.53075 -14.52010
 Alpha  occ. eigenvalues --  -14.48832 -14.48585 -14.48201 -14.47390 -14.46307
 Alpha  occ. eigenvalues --  -14.45977 -14.45101 -14.44720 -14.44596 -14.42639
 Alpha  occ. eigenvalues --  -14.41426 -14.41261 -14.40887 -14.40365 -14.40203
 Alpha  occ. eigenvalues --  -10.44967 -10.40550 -10.40527 -10.39662 -10.38513
 Alpha  occ. eigenvalues --  -10.37818 -10.37713 -10.37449 -10.36111 -10.35540
 Alpha  occ. eigenvalues --  -10.34593 -10.34388 -10.33928 -10.33758 -10.33235
 Alpha  occ. eigenvalues --  -10.33115 -10.32953 -10.32872 -10.30872 -10.30755
 Alpha  occ. eigenvalues --  -10.30473 -10.28423 -10.27547  -1.19103  -1.15762
 Alpha  occ. eigenvalues --   -1.12768  -1.12573  -1.11169  -1.10126  -1.09812
 Alpha  occ. eigenvalues --   -1.08920  -1.07984  -1.05380  -1.05065  -1.02030
 Alpha  occ. eigenvalues --   -1.01569  -1.00567  -0.98879  -0.98111  -0.97364
 Alpha  occ. eigenvalues --   -0.96855  -0.96108  -0.92766  -0.90667  -0.88210
 Alpha  occ. eigenvalues --   -0.86520  -0.83874  -0.83546  -0.83120  -0.82253
 Alpha  occ. eigenvalues --   -0.82026  -0.78490  -0.77569  -0.75554  -0.74106
 Alpha  occ. eigenvalues --   -0.73045  -0.72938  -0.72885  -0.71109  -0.70958
 Alpha  occ. eigenvalues --   -0.67469  -0.66715  -0.66365  -0.66072  -0.64891
 Alpha  occ. eigenvalues --   -0.64060  -0.63365  -0.62809  -0.62508  -0.61166
 Alpha  occ. eigenvalues --   -0.60937  -0.60835  -0.60718  -0.59894  -0.59280
 Alpha  occ. eigenvalues --   -0.58998  -0.57702  -0.57007  -0.56376  -0.56045
 Alpha  occ. eigenvalues --   -0.55905  -0.55769  -0.55566  -0.54581  -0.54504
 Alpha  occ. eigenvalues --   -0.53747  -0.53696  -0.53345  -0.53180  -0.52877
 Alpha  occ. eigenvalues --   -0.52466  -0.51959  -0.51731  -0.50852  -0.50183
 Alpha  occ. eigenvalues --   -0.49974  -0.49638  -0.49598  -0.49005  -0.48882
 Alpha  occ. eigenvalues --   -0.48359  -0.48087  -0.47854  -0.47114  -0.46964
 Alpha  occ. eigenvalues --   -0.46785  -0.45578  -0.44814  -0.44376  -0.43468
 Alpha  occ. eigenvalues --   -0.41485  -0.40820  -0.39217  -0.38216  -0.38043
 Alpha  occ. eigenvalues --   -0.37627  -0.36836  -0.36463  -0.35659  -0.34996
 Alpha  occ. eigenvalues --   -0.34831  -0.33588  -0.33453  -0.32810  -0.32716
 Alpha  occ. eigenvalues --   -0.32271  -0.32045  -0.31828  -0.31490  -0.30802
 Alpha  occ. eigenvalues --   -0.30480  -0.30139  -0.25835  -0.24620
 Alpha virt. eigenvalues --    0.02989   0.03876   0.06320   0.07862   0.09007
 Alpha virt. eigenvalues --    0.09432   0.09742   0.10376   0.11352   0.12093
 Alpha virt. eigenvalues --    0.12394   0.13982   0.14536   0.14841   0.15243
 Alpha virt. eigenvalues --    0.15752   0.15984   0.17035   0.17492   0.17570
 Alpha virt. eigenvalues --    0.19070   0.19453   0.20049   0.20676   0.20856
 Alpha virt. eigenvalues --    0.21077   0.21168   0.21252   0.21630   0.22135
 Alpha virt. eigenvalues --    0.22381   0.23250   0.23397   0.24066   0.24157
 Alpha virt. eigenvalues --    0.24351   0.24613   0.25228   0.25283   0.25519
 Alpha virt. eigenvalues --    0.25929   0.26588   0.27819   0.28240   0.28336
 Alpha virt. eigenvalues --    0.29055   0.29338   0.30107   0.30562   0.31093
 Alpha virt. eigenvalues --    0.31461   0.31999   0.32832   0.33369   0.33654
 Alpha virt. eigenvalues --    0.34219   0.34552   0.35302   0.35976   0.36278
 Alpha virt. eigenvalues --    0.37092   0.37786   0.38258   0.38688   0.38857
 Alpha virt. eigenvalues --    0.39993   0.40438   0.41155   0.41545   0.41951
 Alpha virt. eigenvalues --    0.42439   0.42896   0.43213   0.43889   0.44362
 Alpha virt. eigenvalues --    0.44860   0.45374   0.46167   0.46625   0.47384
 Alpha virt. eigenvalues --    0.47585   0.48140   0.48595   0.48967   0.49591
 Alpha virt. eigenvalues --    0.50076   0.50490   0.51234   0.51453   0.51647
 Alpha virt. eigenvalues --    0.52208   0.52491   0.52871   0.53438   0.53470
 Alpha virt. eigenvalues --    0.53977   0.54103   0.55163   0.55525   0.56129
 Alpha virt. eigenvalues --    0.56368   0.56572   0.57471   0.57972   0.58308
 Alpha virt. eigenvalues --    0.58372   0.58668   0.58992   0.59403   0.59791
 Alpha virt. eigenvalues --    0.60166   0.60652   0.60885   0.60979   0.62063
 Alpha virt. eigenvalues --    0.62250   0.62845   0.62976   0.63401   0.63689
 Alpha virt. eigenvalues --    0.64118   0.64313   0.64590   0.64975   0.65319
 Alpha virt. eigenvalues --    0.65923   0.66283   0.66368   0.67227   0.67859
 Alpha virt. eigenvalues --    0.68264   0.68571   0.69137   0.69482   0.69653
 Alpha virt. eigenvalues --    0.70074   0.70676   0.70880   0.71425   0.72163
 Alpha virt. eigenvalues --    0.72359   0.72616   0.73644   0.74028   0.74286
 Alpha virt. eigenvalues --    0.74858   0.75141   0.75442   0.75567   0.75961
 Alpha virt. eigenvalues --    0.76180   0.76503   0.76888   0.77179   0.77544
 Alpha virt. eigenvalues --    0.77874   0.78084   0.78252   0.78969   0.79192
 Alpha virt. eigenvalues --    0.79531   0.79812   0.80157   0.80464   0.80675
 Alpha virt. eigenvalues --    0.81397   0.81743   0.83093   0.83184   0.83495
 Alpha virt. eigenvalues --    0.83623   0.83854   0.84556   0.84605   0.85331
 Alpha virt. eigenvalues --    0.85711   0.86164   0.86758   0.86870   0.87642
 Alpha virt. eigenvalues --    0.88132   0.88619   0.89587   0.89693   0.89772
 Alpha virt. eigenvalues --    0.90116   0.90949   0.91344   0.91696   0.91975
 Alpha virt. eigenvalues --    0.92677   0.93568   0.94066   0.94153   0.94397
 Alpha virt. eigenvalues --    0.95186   0.95485   0.96059   0.96181   0.97481
 Alpha virt. eigenvalues --    0.97901   0.98271   0.98497   0.99271   0.99658
 Alpha virt. eigenvalues --    1.00098   1.01018   1.01228   1.01666   1.01838
 Alpha virt. eigenvalues --    1.02468   1.02623   1.03030   1.03538   1.03813
 Alpha virt. eigenvalues --    1.04052   1.04853   1.05380   1.05692   1.06219
 Alpha virt. eigenvalues --    1.06622   1.06842   1.06962   1.08499   1.09246
 Alpha virt. eigenvalues --    1.09903   1.10976   1.11049   1.11593   1.11787
 Alpha virt. eigenvalues --    1.12267   1.12763   1.13251   1.13503   1.14004
 Alpha virt. eigenvalues --    1.14432   1.14498   1.15353   1.15737   1.16339
 Alpha virt. eigenvalues --    1.16464   1.17040   1.17525   1.17787   1.17948
 Alpha virt. eigenvalues --    1.18852   1.19122   1.19302   1.19969   1.20483
 Alpha virt. eigenvalues --    1.20973   1.21191   1.21347   1.21992   1.22188
 Alpha virt. eigenvalues --    1.22411   1.23318   1.23504   1.24259   1.24441
 Alpha virt. eigenvalues --    1.24609   1.25080   1.25330   1.25657   1.26898
 Alpha virt. eigenvalues --    1.27422   1.28206   1.29207   1.29364   1.29768
 Alpha virt. eigenvalues --    1.30859   1.31353   1.32046   1.32791   1.32999
 Alpha virt. eigenvalues --    1.33379   1.34352   1.34660   1.34973   1.35941
 Alpha virt. eigenvalues --    1.36207   1.36930   1.37716   1.38182   1.38778
 Alpha virt. eigenvalues --    1.39669   1.39932   1.40636   1.41559   1.43098
 Alpha virt. eigenvalues --    1.43691   1.44785   1.45444   1.45675   1.46302
 Alpha virt. eigenvalues --    1.46664   1.47426   1.48235   1.48603   1.49250
 Alpha virt. eigenvalues --    1.50496   1.50585   1.51104   1.51922   1.52402
 Alpha virt. eigenvalues --    1.52856   1.53574   1.54496   1.55158   1.55933
 Alpha virt. eigenvalues --    1.56235   1.56440   1.56633   1.57416   1.58428
 Alpha virt. eigenvalues --    1.58660   1.59565   1.59855   1.61187   1.61485
 Alpha virt. eigenvalues --    1.62196   1.62654   1.63638   1.64534   1.64729
 Alpha virt. eigenvalues --    1.65530   1.65938   1.66520   1.66594   1.67562
 Alpha virt. eigenvalues --    1.67682   1.68055   1.68495   1.69182   1.69699
 Alpha virt. eigenvalues --    1.69971   1.71332   1.71455   1.72103   1.72155
 Alpha virt. eigenvalues --    1.72602   1.72919   1.73472   1.73814   1.74650
 Alpha virt. eigenvalues --    1.74828   1.75041   1.75482   1.75877   1.76113
 Alpha virt. eigenvalues --    1.76656   1.77061   1.77327   1.77500   1.78006
 Alpha virt. eigenvalues --    1.78156   1.78301   1.78897   1.79095   1.79782
 Alpha virt. eigenvalues --    1.79832   1.80468   1.80810   1.81096   1.81491
 Alpha virt. eigenvalues --    1.81554   1.81795   1.81975   1.82499   1.82677
 Alpha virt. eigenvalues --    1.83448   1.83670   1.84338   1.84440   1.85275
 Alpha virt. eigenvalues --    1.85863   1.86730   1.87088   1.87629   1.88207
 Alpha virt. eigenvalues --    1.88596   1.88903   1.89618   1.89936   1.90263
 Alpha virt. eigenvalues --    1.90790   1.91519   1.91886   1.92002   1.92586
 Alpha virt. eigenvalues --    1.92744   1.93351   1.94055   1.94686   1.95309
 Alpha virt. eigenvalues --    1.95534   1.96287   1.96958   1.97729   1.97984
 Alpha virt. eigenvalues --    1.99573   2.00442   2.01121   2.01519   2.02222
 Alpha virt. eigenvalues --    2.02909   2.03621   2.03893   2.04446   2.05351
 Alpha virt. eigenvalues --    2.05802   2.05987   2.06306   2.07473   2.08459
 Alpha virt. eigenvalues --    2.08782   2.09332   2.09469   2.09856   2.10941
 Alpha virt. eigenvalues --    2.11457   2.12147   2.13010   2.14398   2.14668
 Alpha virt. eigenvalues --    2.15198   2.15713   2.16654   2.17448   2.17950
 Alpha virt. eigenvalues --    2.18821   2.20498   2.20938   2.21611   2.21852
 Alpha virt. eigenvalues --    2.22200   2.22780   2.22818   2.23795   2.24424
 Alpha virt. eigenvalues --    2.25365   2.25912   2.26256   2.26722   2.28130
 Alpha virt. eigenvalues --    2.29113   2.29243   2.30028   2.30350   2.30828
 Alpha virt. eigenvalues --    2.31305   2.31613   2.32309   2.32836   2.33204
 Alpha virt. eigenvalues --    2.34021   2.34244   2.34590   2.34822   2.35224
 Alpha virt. eigenvalues --    2.36333   2.36995   2.37165   2.37583   2.38464
 Alpha virt. eigenvalues --    2.39118   2.39836   2.40768   2.41615   2.42369
 Alpha virt. eigenvalues --    2.42715   2.42940   2.43915   2.44503   2.44914
 Alpha virt. eigenvalues --    2.45326   2.45460   2.46849   2.47241   2.47840
 Alpha virt. eigenvalues --    2.49163   2.49559   2.50636   2.51041   2.52256
 Alpha virt. eigenvalues --    2.53683   2.54810   2.55250   2.55993   2.57195
 Alpha virt. eigenvalues --    2.58506   2.58633   2.59915   2.61486   2.61642
 Alpha virt. eigenvalues --    2.62044   2.62734   2.63744   2.64187   2.64312
 Alpha virt. eigenvalues --    2.65368   2.65491   2.65767   2.66505   2.66944
 Alpha virt. eigenvalues --    2.68327   2.68939   2.69673   2.70056   2.70555
 Alpha virt. eigenvalues --    2.71215   2.71386   2.71647   2.72909   2.73088
 Alpha virt. eigenvalues --    2.74108   2.75229   2.75636   2.76183   2.76563
 Alpha virt. eigenvalues --    2.77690   2.78282   2.79659   2.79775   2.80292
 Alpha virt. eigenvalues --    2.80409   2.80657   2.81110   2.81703   2.81929
 Alpha virt. eigenvalues --    2.82562   2.83218   2.83873   2.84608   2.85361
 Alpha virt. eigenvalues --    2.85576   2.85857   2.87004   2.87291   2.87914
 Alpha virt. eigenvalues --    2.88601   2.88910   2.90339   2.93409   2.94711
 Alpha virt. eigenvalues --    2.94864   2.98258   2.98964   2.99559   2.99998
 Alpha virt. eigenvalues --    3.01019   3.01959   3.04119   3.06447   3.07268
 Alpha virt. eigenvalues --    3.09646   3.09991   3.10902   3.13791   3.15239
 Alpha virt. eigenvalues --    3.15955   3.16226   3.17225   3.18562   3.21481
 Alpha virt. eigenvalues --    3.22962   3.23755   3.24073   3.24647   3.27240
 Alpha virt. eigenvalues --    3.44962   3.47094   3.48963   3.50177   3.50943
 Alpha virt. eigenvalues --    3.53652   3.54481   3.56838   3.58407   3.60803
 Alpha virt. eigenvalues --    3.64013   3.71603   3.75310
          Condensed to atoms (all electrons):
 Mulliken charges:
               1
     1  N   -0.314163
     2  C    0.181880
     3  C    0.053182
     4  N   -0.262586
     5  C    0.137932
     6  H    0.026309
     7  N   -0.292594
     8  C    0.142939
     9  H    0.011290
    10  N   -0.285019
    11  C    0.261961
    12  C    0.100712
    13  N   -0.057989
    14  H    0.107328
    15  H    0.081804
    16  H    0.024231
    17  H    0.028987
    18  H    0.028622
    19  N   -0.286220
    20  C    0.201989
    21  C    0.180584
    22  N   -0.085205
    23  H    0.110241
    24  H    0.108038
    25  N   -0.297932
    26  C    0.204928
    27  N   -0.145967
    28  H    0.120031
    29  C    0.185798
    30  O   -0.323902
    31  C   -0.006261
    32  N   -0.220853
    33  C    0.131559
    34  H    0.015276
    35  H    0.028094
    36  H    0.026803
    37  H    0.023047
    38  H    0.063503
    39  H    0.056714
    40  H    0.068956
    41  H    0.028540
    42  C   -0.113345
    43  O   -0.263665
    44  C    0.176505
    45  H    0.131179
    46  N   -0.125011
    47  O   -0.335018
    48  C    0.334169
    49  H    0.045152
    50  C    0.165438
    51  C    0.039901
    52  N   -0.283317
    53  H    0.037043
    54  H    0.034347
    55  H    0.031951
    56  H    0.121389
    57  H    0.118048
    58  N   -0.060133
    59  C    0.091368
    60  C    0.261386
    61  N   -0.289044
    62  H    0.060972
    63  C    0.153022
    64  N   -0.298903
    65  H    0.038870
    66  C    0.131128
    67  N   -0.256542
    68  C    0.014131
    69  C    0.181878
    70  N   -0.305485
 Sum of Mulliken charges =  -0.00000
 Mulliken charges with hydrogens summed into heavy atoms:
               1
     1  N   -0.314163
     2  C    0.263720
     3  C    0.053182
     4  N   -0.262586
     5  C    0.164240
     7  N   -0.292594
     8  C    0.154229
    10  N   -0.285019
    11  C    0.261961
    12  C    0.100712
    13  N    0.131143
    19  N   -0.286220
    20  C    0.201989
    21  C    0.258527
    22  N    0.133074
    25  N   -0.297932
    26  C    0.204928
    27  N   -0.025936
    29  C    0.185798
    30  O   -0.323902
    31  C   -0.006261
    32  N   -0.220853
    33  C    0.146834
    42  C   -0.084805
    43  O   -0.263665
    44  C    0.176505
    46  N    0.006169
    47  O   -0.335018
    48  C    0.334169
    50  C    0.210591
    51  C    0.229073
    52  N   -0.283317
    58  N    0.179304
    59  C    0.091368
    60  C    0.261386
    61  N   -0.289044
    63  C    0.213994
    64  N   -0.298903
    66  C    0.169999
    67  N   -0.256542
    68  C    0.014131
    69  C    0.285219
    70  N   -0.305485
 Electronic spatial extent (au):  <R**2>=          21528.7200
 Charge=              0.0000 electrons
 Dipole moment (field-independent basis, Debye):
    X=             -8.1718    Y=              6.0617    Z=             -3.3404  Tot=             10.7089
 Quadrupole moment (field-independent basis, Debye-Ang):
   XX=           -154.6152   YY=           -221.8337   ZZ=           -256.3826
   XY=              0.1120   XZ=             -4.6228   YZ=             12.4261
 Traceless Quadrupole moment (field-independent basis, Debye-Ang):
   XX=             56.3286   YY=            -10.8899   ZZ=            -45.4388
   XY=              0.1120   XZ=             -4.6228   YZ=             12.4261
 Octapole moment (field-independent basis, Debye-Ang**2):
  XXX=             77.8787  YYY=            133.8374  ZZZ=             -3.8322  XYY=            -95.7871
  XXY=             39.3228  XXZ=              6.6068  XZZ=            -37.5328  YZZ=             14.6040
  YYZ=            -60.2622  XYZ=             46.9893
 Hexadecapole moment (field-independent basis, Debye-Ang**3):
 XXXX=         -14840.0143 YYYY=          -5876.5134 ZZZZ=          -3453.5836 XXXY=           -510.7678
 XXXZ=           -271.4630 YYYX=             -8.0810 YYYZ=            114.4898 ZZZX=            -32.0959
 ZZZY=             44.8582 XXYY=          -3176.0309 XXZZ=          -3657.3722 YYZZ=          -1619.5802
 XXYZ=              6.7004 YYXZ=            168.0901 ZZXY=             38.4317
 N-N= 5.579465511047D+03 E-N=-1.593987898916D+04  KE= 2.037921931020D+03
 No NMR shielding tensors so no spin-rotation constants.
 Leave Link  601 at Wed Jan 24 00:13:34 2018, MaxMem=  4294967296 cpu:              45.5 elap:               1.6
 (Enter /share/apps/g16/l9999.exe)
 1\1\GINC-COMPUTE-0-3\SP\RwB97XD\CC-pVDZ\C23H27N17O3\SATYA\24-Jan-2018\
 0\\#p wb97xd/cc-pvdz sp scf=(maxcycles=20)\\Base pair stacking\\0,1\N,
 0,2.90815,1.58879,-7.65129\C,0,4.01572,2.55037,-7.81457\C,0,0.99073,0.
 65565,-7.11273\N,0,1.72076,-0.31593,-7.78191\C,0,2.84672,0.28514,-8.07
 959\H,0,3.67474,-0.17958,-8.61566\N,0,-0.72176,1.78231,-5.94613\C,0,0.
 08773,2.84639,-5.93909\H,0,-0.31306,3.73231,-5.4484\N,0,1.31221,2.9797
 8,-6.4448\C,0,1.70962,1.83503,-7.02449\C,0,-0.29285,0.64575,-6.53717\N
 ,0,-1.09946,-0.4175,-6.54522\H,0,-0.82323,-1.27964,-6.9714\H,0,-2.0068
 5,-0.38854,-6.12577\H,0,4.19817,2.68858,-8.78811\H,0,3.765,3.42289,-7.
 39626\H,0,4.8377,2.19376,-7.37051\N,0,1.64417,3.86319,-3.36246\C,0,0.5
 1931,3.11487,-3.11192\C,0,1.72134,5.33646,-3.29751\N,0,-2.83881,2.9298
 5,-2.24558\H,0,-3.5267,2.21791,-2.10706\H,0,-3.13308,3.87685,-2.11402\
 N,0,-0.69468,3.59586,-2.76708\C,0,-1.57812,2.62913,-2.5922\N,0,-1.2962
 7,1.29297,-2.743\H,0,-2.03425,0.62317,-2.58895\C,0,-0.05431,0.77538,-3
 .09725\O,0,0.09448,-0.44798,-3.20678\C,0,0.90511,1.80194,-3.28852\N,0,
 2.2452,1.7275,-3.6428\C,0,2.64097,2.97112,-3.67432\H,0,3.65303,3.29465
 ,-3.91994\H,0,1.98695,5.69768,-4.19069\H,0,0.82783,5.704,-3.04292\H,0,
 2.3987,5.60661,-2.61411\H,0,-6.28455,-2.15358,-2.31086\H,0,-5.70928,-2
 .49176,-0.6801\H,0,-5.35015,-0.93939,-1.43678\H,0,-2.91057,-5.45667,-3
 .23414\C,0,-2.98242,-4.39696,-2.98903\O,0,-0.7645,-3.90077,-3.66854\C,
 0,-1.8518,-3.54852,-3.21193\H,0,-1.27244,-1.59597,-3.0114\N,0,-2.04891
 ,-2.22631,-2.86821\O,0,-3.2692,-0.48255,-2.07612\C,0,-3.19004,-1.66726
 ,-2.34972\H,0,-4.99698,-4.48334,-2.29629\C,0,-4.10927,-3.88094,-2.4845
 2\C,0,-5.47664,-1.99749,-1.61158\N,0,-4.23626,-2.54931,-2.16357\H,0,-7
 .85204,2.6822,-2.62473\H,0,-6.28354,2.71063,-2.17628\H,0,-7.36643,1.85
 65,-1.30342\H,0,-4.07579,-2.55849,-6.2772\H,0,-5.70219,-2.75449,-5.801
 29\N,0,-4.86362,-2.20951,-5.76958\C,0,-4.79984,-1.06822,-5.08069\C,0,-
 5.65914,0.6583,-3.68696\N,0,-4.51977,1.36939,-3.66222\H,0,-2.61703,1.2
 7902,-4.41852\C,0,-3.57765,0.76683,-4.38486\N,0,-3.63957,-0.37626,-5.0
 7558\H,0,-8.7349,-0.0755,-3.01361\C,0,-7.70846,-0.05948,-3.38116\N,0,-
 7.17782,-0.97865,-4.15007\C,0,-5.8786,-0.53574,-4.35152\C,0,-7.10782,2
 .14731,-2.22469\N,0,-6.84569,0.96053,-3.06186\\Version=EM64L-G16RevA.0
 3\State=1-A\HF=-2048.732551\RMSD=7.153e-09\Dipole=-3.9633234,1.146592,
 0.8534795\Quadrupole=19.3689855,-5.5386704,-13.8303152,24.8921762,-25.
 3316992,4.1987221\PG=C01 [X(C23H27N17O3)]\\@


 THIS CURIOUS WORLD WHICH WE INHABIT IS MORE WONDERFUL THAN IT IS CONVENIENT;
 MORE BEAUTIFUL THAN IT IS USEFUL;
 IT IS MORE TO BE ADMIRED THAN IT IS TO BE USED.

                                                                 -- THOREAU
 Job cpu time:       0 days  6 hours 17 minutes 56.9 seconds.
 Elapsed time:       0 days  0 hours 12 minutes 13.4 seconds.
 File lengths (MBytes):  RWF=    298 Int=      0 D2E=      0 Chk=     33 Scr=      1
 Normal termination of Gaussian 16 at Wed Jan 24 00:13:34 2018.
