 Entering Gaussian System, Link 0=g16
 Input=str45.-15.-1.5.com
 Output=str45.-15.-1.5.log
 Initial command:
 /share/apps/g16/l1.exe "/state/partition1/scr/Gau-7698.inp" -scrdir="/state/partition1/scr/"
 Entering Link 1 = /share/apps/g16/l1.exe PID=      7699.
  
 Copyright (c) 1988,1990,1992,1993,1995,1998,2003,2009,2016,
            Gaussian, Inc.  All Rights Reserved.
  
 This is part of the Gaussian(R) 16 program.  It is based on
 the Gaussian(R) 09 system (copyright 2009, Gaussian, Inc.),
 the Gaussian(R) 03 system (copyright 2003, Gaussian, Inc.),
 the Gaussian(R) 98 system (copyright 1998, Gaussian, Inc.),
 the Gaussian(R) 94 system (copyright 1995, Gaussian, Inc.),
 the Gaussian 92(TM) system (copyright 1992, Gaussian, Inc.),
 the Gaussian 90(TM) system (copyright 1990, Gaussian, Inc.),
 the Gaussian 88(TM) system (copyright 1988, Gaussian, Inc.),
 the Gaussian 86(TM) system (copyright 1986, Carnegie Mellon
 University), and the Gaussian 82(TM) system (copyright 1983,
 Carnegie Mellon University). Gaussian is a federally registered
 trademark of Gaussian, Inc.
  
 This software contains proprietary and confidential information,
 including trade secrets, belonging to Gaussian, Inc.
  
 This software is provided under written license and may be
 used, copied, transmitted, or stored only in accord with that
 written license.
  
 The following legend is applicable only to US Government
 contracts under FAR:
  
                    RESTRICTED RIGHTS LEGEND
  
 Use, reproduction and disclosure by the US Government is
 subject to restrictions as set forth in subparagraphs (a)
 and (c) of the Commercial Computer Software - Restricted
 Rights clause in FAR 52.227-19.
  
 Gaussian, Inc.
 340 Quinnipiac St., Bldg. 40, Wallingford CT 06492
  
  
 ---------------------------------------------------------------
 Warning -- This program may not be used in any manner that
 competes with the business of Gaussian, Inc. or will provide
 assistance to any competitor of Gaussian, Inc.  The licensee
 of this program is prohibited from giving any competitor of
 Gaussian, Inc. access to this program.  By using this program,
 the user acknowledges that Gaussian, Inc. is engaged in the
 business of creating and licensing software in the field of
 computational chemistry and represents and warrants to the
 licensee that it is not a competitor of Gaussian, Inc. and that
 it will not use this program in any manner prohibited above.
 ---------------------------------------------------------------
  

 Cite this work as:
 Gaussian 16, Revision A.03,
 M. J. Frisch, G. W. Trucks, H. B. Schlegel, G. E. Scuseria, 
 M. A. Robb, J. R. Cheeseman, G. Scalmani, V. Barone, 
 G. A. Petersson, H. Nakatsuji, X. Li, M. Caricato, A. V. Marenich, 
 J. Bloino, B. G. Janesko, R. Gomperts, B. Mennucci, H. P. Hratchian, 
 J. V. Ortiz, A. F. Izmaylov, J. L. Sonnenberg, D. Williams-Young, 
 F. Ding, F. Lipparini, F. Egidi, J. Goings, B. Peng, A. Petrone, 
 T. Henderson, D. Ranasinghe, V. G. Zakrzewski, J. Gao, N. Rega, 
 G. Zheng, W. Liang, M. Hada, M. Ehara, K. Toyota, R. Fukuda, 
 J. Hasegawa, M. Ishida, T. Nakajima, Y. Honda, O. Kitao, H. Nakai, 
 T. Vreven, K. Throssell, J. A. Montgomery, Jr., J. E. Peralta, 
 F. Ogliaro, M. J. Bearpark, J. J. Heyd, E. N. Brothers, K. N. Kudin, 
 V. N. Staroverov, T. A. Keith, R. Kobayashi, J. Normand, 
 K. Raghavachari, A. P. Rendell, J. C. Burant, S. S. Iyengar, 
 J. Tomasi, M. Cossi, J. M. Millam, M. Klene, C. Adamo, R. Cammi, 
 J. W. Ochterski, R. L. Martin, K. Morokuma, O. Farkas, 
 J. B. Foresman, and D. J. Fox, Gaussian, Inc., Wallingford CT, 2016.
 
 ******************************************
 Gaussian 16:  EM64L-G16RevA.03 25-Dec-2016
                23-Jan-2018 
 ******************************************
 %nprocshared=32
 Will use up to   32 processors via shared memory.
 %mem=32GB
 %chk=allatoms_t.chk
 ---------------------------------------
 #p wb97xd/cc-pvdz sp scf=(maxcycles=20)
 ---------------------------------------
 1/38=1,172=1/1;
 2/12=2,17=6,18=5,40=1/2;
 3/5=16,11=2,25=1,30=1,74=-58/1,2,3;
 4//1;
 5/5=2,7=20,38=5/2;
 6/7=2,8=2,9=2,10=2,28=1/1;
 99/5=1,9=1/99;
 Leave Link    1 at Tue Jan 23 21:08:02 2018, MaxMem=  4294967296 cpu:               2.7 elap:               0.1
 (Enter /share/apps/g16/l101.exe)
 ------------------
 Base pair stacking
 ------------------
 Symbolic Z-matrix:
 Charge =  0 Multiplicity = 1
 N                     5.99217   3.97487  -7.97606 
 C                     7.09163   4.94869  -8.12047 
 C                     4.047     3.04204  -7.54775 
 N                     4.86338   2.03132  -8.03427 
 C                     6.0026    2.63377  -8.27284 
 H                     6.89215   2.14341  -8.66931 
 N                     2.19778   4.22661  -6.68743 
 C                     2.98072   5.31026  -6.7049 
 H                     2.5124    6.22803  -6.35187 
 N                     4.24934   5.42986  -7.09117 
 C                     4.72891   4.2457   -7.50613 
 C                     2.70974   3.05042  -7.11117 
 N                     1.92976   1.96759  -7.09449 
 H                     2.2669    1.0761   -7.39912 
 H                     0.98236   2.01053  -6.77709 
 H                     7.37425   4.99473  -9.07869 
 H                     6.78048   5.85049  -7.82203 
 H                     7.86836   4.6633   -7.55901 
 N                     2.52851   5.6957   -3.44498 
 C                     1.39092   4.94863  -3.25571 
 C                     2.59525   7.17069  -3.41949 
 N                    -2.02153   4.76995  -2.63521 
 H                    -2.71519   4.05846  -2.52635 
 H                    -2.32823   5.71873  -2.55477 
 N                     0.15292   5.43261  -3.01657 
 C                    -0.73751   4.46638  -2.87818 
 N                    -0.44035   3.12797  -2.96683 
 H                    -1.18526   2.45877  -2.8475 
 C                     0.82637   2.6073   -3.21218 
 O                     0.98737   1.3821   -3.273 
 C                     1.79356   3.63328  -3.3631 
 N                     3.15651   3.55612  -3.61473 
 C                     3.54896   4.80054  -3.65479 
 H                     4.57527   5.12251  -3.83455 
 H                     2.92507   7.50637  -4.30116 
 H                     1.68397   7.54045  -3.24311 
 H                     3.21902   7.46533  -2.69637 
 H                    -5.43426  -0.33344  -2.80032 
 H                    -4.98036  -0.61886  -1.12188 
 H                    -4.57176   0.91207  -1.89691 
 H                    -1.98899  -3.64285  -3.36995 
 C                    -2.08271  -2.57667  -3.1633 
 O                     0.17768  -2.08808  -3.69151 
 C                    -0.94179  -1.72866  -3.32764 
 H                    -0.38607   0.23245  -3.14444 
 N                    -1.1687   -0.39787  -3.03997 
 O                    -2.4508    1.36173  -2.39403 
 C                    -2.34721   0.16979  -2.62473 
 H                    -4.14279  -2.65404  -2.61934 
 C                    -3.24578  -2.05234  -2.75961 
 C                    -4.68105  -0.15155  -2.04822 
 N                    -3.40111  -0.71241  -2.48974 
 H                    -5.26282   5.23525  -4.23706 
 H                    -3.75206   5.35598  -3.6328 
 H                    -4.90491   4.56046  -2.79485 
 H                    -1.0153   -0.22573  -6.92067 
 H                    -2.67904  -0.42279  -6.59938 
 N                    -1.85958   0.14793  -6.53632 
 C                    -1.8923    1.35357  -5.96489 
 C                    -2.92947   3.18335  -4.85228 
 N                    -1.81353   3.92775  -4.78174 
 H                     0.16052   3.82049  -5.32232 
 C                    -0.7879    3.28518  -5.33679 
 N                    -0.7531    2.07761  -5.90964 
 H                    -6.04446   2.42692  -4.43177 
 C                    -4.98515   2.43751  -4.69001 
 N                    -4.35737   1.46291  -5.30134 
 C                    -3.05307   1.92292  -5.41047 
 C                    -4.55517   4.76579  -3.70902 
 N                    -4.18174   3.51006  -4.3885 
 
 ITRead=  0  0  0  0  0  0  0  0  0  0  0  0  0  0  0  0  0  0  0  0
 ITRead=  0  0  0  0  0  0  0  0  0  0  0  0  0  0  0  0  0  0  0  0
 ITRead=  0  0  0  0  0  0  0  0  0  0  0  0  0  0  0  0  0  0  0  0
 ITRead=  0  0  0  0  0  0  0  0  0  0
 MicOpt= -1 -1 -1 -1 -1 -1 -1 -1 -1 -1 -1 -1 -1 -1 -1 -1 -1 -1 -1 -1
 MicOpt= -1 -1 -1 -1 -1 -1 -1 -1 -1 -1 -1 -1 -1 -1 -1 -1 -1 -1 -1 -1
 MicOpt= -1 -1 -1 -1 -1 -1 -1 -1 -1 -1 -1 -1 -1 -1 -1 -1 -1 -1 -1 -1
 MicOpt= -1 -1 -1 -1 -1 -1 -1 -1 -1 -1
 NAtoms=     70 NQM=       70 NQMF=       0 NMMI=      0 NMMIF=      0
                NMic=       0 NMicF=      0.
                    Isotopes and Nuclear Properties:
 (Nuclear quadrupole moments (NQMom) in fm**2, nuclear magnetic moments (NMagM)
  in nuclear magnetons)

  Atom         1           2           3           4           5           6           7           8           9          10
 IAtWgt=          14          12          12          14          12           1          14          12           1          14
 AtmWgt=  14.0030740  12.0000000  12.0000000  14.0030740  12.0000000   1.0078250  14.0030740  12.0000000   1.0078250  14.0030740
 NucSpn=           2           0           0           2           0           1           2           0           1           2
 AtZEff=  -0.0000000  -0.0000000  -0.0000000  -0.0000000  -0.0000000  -0.0000000  -0.0000000  -0.0000000  -0.0000000  -0.0000000
 NQMom=    2.0440000   0.0000000   0.0000000   2.0440000   0.0000000   0.0000000   2.0440000   0.0000000   0.0000000   2.0440000
 NMagM=    0.4037610   0.0000000   0.0000000   0.4037610   0.0000000   2.7928460   0.4037610   0.0000000   2.7928460   0.4037610
 AtZNuc=   7.0000000   6.0000000   6.0000000   7.0000000   6.0000000   1.0000000   7.0000000   6.0000000   1.0000000   7.0000000

  Atom        11          12          13          14          15          16          17          18          19          20
 IAtWgt=          12          12          14           1           1           1           1           1          14          12
 AtmWgt=  12.0000000  12.0000000  14.0030740   1.0078250   1.0078250   1.0078250   1.0078250   1.0078250  14.0030740  12.0000000
 NucSpn=           0           0           2           1           1           1           1           1           2           0
 AtZEff=  -0.0000000  -0.0000000  -0.0000000  -0.0000000  -0.0000000  -0.0000000  -0.0000000  -0.0000000  -0.0000000  -0.0000000
 NQMom=    0.0000000   0.0000000   2.0440000   0.0000000   0.0000000   0.0000000   0.0000000   0.0000000   2.0440000   0.0000000
 NMagM=    0.0000000   0.0000000   0.4037610   2.7928460   2.7928460   2.7928460   2.7928460   2.7928460   0.4037610   0.0000000
 AtZNuc=   6.0000000   6.0000000   7.0000000   1.0000000   1.0000000   1.0000000   1.0000000   1.0000000   7.0000000   6.0000000

  Atom        21          22          23          24          25          26          27          28          29          30
 IAtWgt=          12          14           1           1          14          12          14           1          12          16
 AtmWgt=  12.0000000  14.0030740   1.0078250   1.0078250  14.0030740  12.0000000  14.0030740   1.0078250  12.0000000  15.9949146
 NucSpn=           0           2           1           1           2           0           2           1           0           0
 AtZEff=  -0.0000000  -0.0000000  -0.0000000  -0.0000000  -0.0000000  -0.0000000  -0.0000000  -0.0000000  -0.0000000  -0.0000000
 NQMom=    0.0000000   2.0440000   0.0000000   0.0000000   2.0440000   0.0000000   2.0440000   0.0000000   0.0000000   0.0000000
 NMagM=    0.0000000   0.4037610   2.7928460   2.7928460   0.4037610   0.0000000   0.4037610   2.7928460   0.0000000   0.0000000
 AtZNuc=   6.0000000   7.0000000   1.0000000   1.0000000   7.0000000   6.0000000   7.0000000   1.0000000   6.0000000   8.0000000

  Atom        31          32          33          34          35          36          37          38          39          40
 IAtWgt=          12          14          12           1           1           1           1           1           1           1
 AtmWgt=  12.0000000  14.0030740  12.0000000   1.0078250   1.0078250   1.0078250   1.0078250   1.0078250   1.0078250   1.0078250
 NucSpn=           0           2           0           1           1           1           1           1           1           1
 AtZEff=  -0.0000000  -0.0000000  -0.0000000  -0.0000000  -0.0000000  -0.0000000  -0.0000000  -0.0000000  -0.0000000  -0.0000000
 NQMom=    0.0000000   2.0440000   0.0000000   0.0000000   0.0000000   0.0000000   0.0000000   0.0000000   0.0000000   0.0000000
 NMagM=    0.0000000   0.4037610   0.0000000   2.7928460   2.7928460   2.7928460   2.7928460   2.7928460   2.7928460   2.7928460
 AtZNuc=   6.0000000   7.0000000   6.0000000   1.0000000   1.0000000   1.0000000   1.0000000   1.0000000   1.0000000   1.0000000

  Atom        41          42          43          44          45          46          47          48          49          50
 IAtWgt=           1          12          16          12           1          14          16          12           1          12
 AtmWgt=   1.0078250  12.0000000  15.9949146  12.0000000   1.0078250  14.0030740  15.9949146  12.0000000   1.0078250  12.0000000
 NucSpn=           1           0           0           0           1           2           0           0           1           0
 AtZEff=  -0.0000000  -0.0000000  -0.0000000  -0.0000000  -0.0000000  -0.0000000  -0.0000000  -0.0000000  -0.0000000  -0.0000000
 NQMom=    0.0000000   0.0000000   0.0000000   0.0000000   0.0000000   2.0440000   0.0000000   0.0000000   0.0000000   0.0000000
 NMagM=    2.7928460   0.0000000   0.0000000   0.0000000   2.7928460   0.4037610   0.0000000   0.0000000   2.7928460   0.0000000
 AtZNuc=   1.0000000   6.0000000   8.0000000   6.0000000   1.0000000   7.0000000   8.0000000   6.0000000   1.0000000   6.0000000

  Atom        51          52          53          54          55          56          57          58          59          60
 IAtWgt=          12          14           1           1           1           1           1          14          12          12
 AtmWgt=  12.0000000  14.0030740   1.0078250   1.0078250   1.0078250   1.0078250   1.0078250  14.0030740  12.0000000  12.0000000
 NucSpn=           0           2           1           1           1           1           1           2           0           0
 AtZEff=  -0.0000000  -0.0000000  -0.0000000  -0.0000000  -0.0000000  -0.0000000  -0.0000000  -0.0000000  -0.0000000  -0.0000000
 NQMom=    0.0000000   2.0440000   0.0000000   0.0000000   0.0000000   0.0000000   0.0000000   2.0440000   0.0000000   0.0000000
 NMagM=    0.0000000   0.4037610   2.7928460   2.7928460   2.7928460   2.7928460   2.7928460   0.4037610   0.0000000   0.0000000
 AtZNuc=   6.0000000   7.0000000   1.0000000   1.0000000   1.0000000   1.0000000   1.0000000   7.0000000   6.0000000   6.0000000

  Atom        61          62          63          64          65          66          67          68          69          70
 IAtWgt=          14           1          12          14           1          12          14          12          12          14
 AtmWgt=  14.0030740   1.0078250  12.0000000  14.0030740   1.0078250  12.0000000  14.0030740  12.0000000  12.0000000  14.0030740
 NucSpn=           2           1           0           2           1           0           2           0           0           2
 AtZEff=  -0.0000000  -0.0000000  -0.0000000  -0.0000000  -0.0000000  -0.0000000  -0.0000000  -0.0000000  -0.0000000  -0.0000000
 NQMom=    2.0440000   0.0000000   0.0000000   2.0440000   0.0000000   0.0000000   2.0440000   0.0000000   0.0000000   2.0440000
 NMagM=    0.4037610   2.7928460   0.0000000   0.4037610   2.7928460   0.0000000   0.4037610   0.0000000   0.0000000   0.4037610
 AtZNuc=   7.0000000   1.0000000   6.0000000   7.0000000   1.0000000   6.0000000   7.0000000   6.0000000   6.0000000   7.0000000
 Leave Link  101 at Tue Jan 23 21:08:03 2018, MaxMem=  4294967296 cpu:               7.7 elap:               0.3
 (Enter /share/apps/g16/l202.exe)
 Stoichiometry    C23H27N17O3
 Framework group  C1[X(C23H27N17O3)]
 Deg. of freedom   204
 Full point group                 C1      NOp   1
 Largest Abelian subgroup         C1      NOp   1
 Largest concise Abelian subgroup C1      NOp   1
                         Standard orientation:                         
 ---------------------------------------------------------------------
 Center     Atomic      Atomic             Coordinates (Angstroms)
 Number     Number       Type             X           Y           Z
 ---------------------------------------------------------------------
      1          7           0       -6.626286   -1.501580    0.481788
      2          6           0       -7.993720   -0.984596    0.279694
      3          6           0       -4.458432   -1.647743    0.822896
      4          7           0       -4.922057   -2.950355    0.708940
      5          6           0       -6.209555   -2.810162    0.507998
      6          1           0       -6.909149   -3.635249    0.371103
      7          7           0       -3.056672    0.228155    1.104045
      8          6           0       -4.154599    0.975841    0.951997
      9          1           0       -3.996186    2.051832    1.010329
     10          7           0       -5.412912    0.595723    0.739712
     11          6           0       -5.497375   -0.743789    0.685064
     12          6           0       -3.174823   -1.116278    1.043869
     13          7           0       -2.080006   -1.864326    1.195416
     14          1           0       -2.120602   -2.863419    1.158228
     15          1           0       -1.182389   -1.451808    1.351194
     16          1           0       -8.593312   -1.333502    1.000065
     17          1           0       -7.981403    0.014356    0.312367
     18          1           0       -8.336925   -1.283066   -0.610879
     19          7           0       -2.760330    2.505994   -1.635430
     20          6           0       -1.434499    2.218956   -1.416730
     21          6           0       -3.392314    3.825625   -1.435754
     22          7           0        1.744015    3.235262   -0.454478
     23          1           0        2.651571    2.827239   -0.359124
     24          1           0        1.656068    4.204902   -0.224731
     25          7           0       -0.493887    3.087237   -0.986144
     26          6           0        0.691605    2.515305   -0.871600
     27          7           0        0.939127    1.194282   -1.156442
     28          1           0        1.877004    0.842462   -1.039959
     29          6           0       -0.013450    0.282675   -1.600789
     30          8           0        0.314295   -0.888252   -1.829363
     31          6           0       -1.292020    0.882479   -1.728705
     32          7           0       -2.504021    0.341357   -2.135086
     33          6           0       -3.343494    1.338573   -2.064029
     34          1           0       -4.403316    1.277086   -2.313602
     35          1           0       -4.119282    3.749199   -0.754226
     36          1           0       -2.705166    4.477056   -1.116803
     37          1           0       -3.778310    4.146381   -2.300003
     38          1           0        6.594130   -0.444418    0.354788
     39          1           0        6.923004   -0.289685   -1.369320
     40          1           0        5.693741    0.723947   -0.612462
     41          1           0        4.788616   -4.600102   -1.262916
     42          6           0        4.519099   -3.544776   -1.219615
     43          8           0        2.225049   -3.921861   -1.691030
     44          6           0        3.159348   -3.159587   -1.444413
     45          1           0        1.977475   -1.490517   -1.520057
     46          7           0        2.926533   -1.801265   -1.366922
     47          8           0        3.544150    0.361710   -1.054992
     48          6           0        3.846576   -0.817652   -1.103152
     49          1           0        6.486370   -2.849018   -0.781926
     50          6           0        5.439131   -2.608400   -0.960081
     51          6           0        6.153706   -0.253068   -0.612411
     52          7           0        5.135798   -1.268078   -0.897660
     53          1           0        3.728588    4.065616    2.488373
     54          1           0        2.618907    3.937141    1.299170
     55          1           0        4.208587    3.820299    0.947973
     56          1           0        1.342195   -2.943420    1.994380
     57          1           0        2.942163   -2.541033    2.428292
     58          7           0        2.045429   -2.240478    2.101568
     59          6           0        1.799361   -0.958990    1.821550
     60          6           0        2.348731    1.347902    1.626205
     61          7           0        1.135085    1.722652    1.189106
     62          1           0       -0.685038    0.886073    0.755640
     63          6           0        0.324084    0.670078    1.103901
     64          7           0        0.568651   -0.614204    1.383898
     65          1           0        5.433232    1.693284    2.531048
     66          6           0        4.440887    1.316120    2.282180
     67          7           0        4.077862    0.059774    2.368702
     68          6           0        2.753452    0.066025    1.955646
     69          6           0        3.504829    3.610091    1.626737
     70          7           0        3.444001    2.150966    1.839471
 ---------------------------------------------------------------------
 Rotational constants (GHZ):           0.1420357           0.0546448           0.0480978
 Leave Link  202 at Tue Jan 23 21:08:03 2018, MaxMem=  4294967296 cpu:               0.4 elap:               0.0
 (Enter /share/apps/g16/l301.exe)
 Standard basis: CC-pVDZ (5D, 7F)
 Ernie: Thresh=  0.10000D-02 Tol=  0.10000D-05 Strict=F.
 Ernie:  86 primitive shells out of 1081 were deleted.
 There are   780 symmetry adapted cartesian basis functions of A   symmetry.
 There are   737 symmetry adapted basis functions of A   symmetry.
   737 basis functions,  1608 primitive gaussians,   780 cartesian basis functions
   154 alpha electrons      154 beta electrons
       nuclear repulsion energy      5529.2338618616 Hartrees.
 IExCor= 4639 DFT=T Ex+Corr=wB97XD ExCW=0 ScaHFX=  1.000000
 ScaDFX=  1.000000  1.000000  1.000000  1.000000 ScalE2=  1.000000  1.000000
 IRadAn=      5 IRanWt=     -1 IRanGd=            0 ICorTp=0 IEmpDi=121
 HFx  wShort=  0.000000 wLong=  0.200000 cFull=  0.222036 cShort=  0.000000 cLong=  0.777964
 DFx  wShort=  0.000000 wLong=  0.200000 cFull=  0.000000 cShort=  0.000000 cLong=  1.000000
 NAtoms=   70 NActive=   70 NUniq=   70 SFac= 1.00D+00 NAtFMM=   60 NAOKFM=T Big=T
 Integral buffers will be    131072 words long.
 Raffenetti 2 integral format.
 Two-electron integral symmetry is turned on.
 R6Disp:  Grimme-D2 Dispersion energy=       -0.0722572240 Hartrees.
 Nuclear repulsion after empirical dispersion term =     5529.1616046376 Hartrees.
 Leave Link  301 at Tue Jan 23 21:08:03 2018, MaxMem=  4294967296 cpu:               7.8 elap:               0.3
 (Enter /share/apps/g16/l302.exe)
 NPDir=0 NMtPBC=     1 NCelOv=     1 NCel=       1 NClECP=     1 NCelD=      1
         NCelK=      1 NCelE2=     1 NClLst=     1 CellRange=     0.0.
 One-electron integrals computed using PRISM.
 One-electron integral symmetry used in STVInt
 NBasis=   737 RedAO= T EigKep=  6.74D-04  NBF=   737
 NBsUse=   737 1.00D-06 EigRej= -1.00D+00 NBFU=   737
 Precomputing XC quadrature grid using
 IXCGrd= 4 IRadAn=           5 IRanWt=          -1 IRanGd=           0 AccXCQ= 0.00D+00.
 Generated NRdTot=       0 NPtTot=           0 NUsed=           0 NTot=          32
 NSgBfM=   767   767   767   767   767 MxSgAt=    70 MxSgA2=    70.
 Leave Link  302 at Tue Jan 23 21:08:07 2018, MaxMem=  4294967296 cpu:             136.7 elap:               4.3
 (Enter /share/apps/g16/l303.exe)
 DipDrv:  MaxL=1.
 Leave Link  303 at Tue Jan 23 21:08:08 2018, MaxMem=  4294967296 cpu:              12.4 elap:               0.4
 (Enter /share/apps/g16/l401.exe)
 ExpMin= 1.22D-01 ExpMax= 1.17D+04 ExpMxC= 4.01D+02 IAcc=3 IRadAn=         5 AccDes= 0.00D+00
 Harris functional with IExCor= 4639 and IRadAn=       5 diagonalized for initial guess.
 HarFok:  IExCor= 4639 AccDes= 0.00D+00 IRadAn=         5 IDoV= 1 UseB2=F ITyADJ=14
 ICtDFT=  3500011 ScaDFX=  1.000000  1.000000  1.000000  1.000000
 FoFCou: FMM=F IPFlag=           0 FMFlag=      100000 FMFlg1=        2001
         NFxFlg=           0 DoJE=T BraDBF=F KetDBF=T FulRan=T
         wScrn=  0.000000 ICntrl=       500 IOpCl=  0 I1Cent=   200000004 NGrid=           0
         NMat0=    1 NMatS0=      1 NMatT0=    0 NMatD0=    1 NMtDS0=    0 NMtDT0=    0
 Petite list used in FoFCou.
 Harris En= -1963.79093032740    
 JPrj=0 DoOrth=F DoCkMO=F.
 Leave Link  401 at Tue Jan 23 21:08:20 2018, MaxMem=  4294967296 cpu:             401.8 elap:              12.6
 (Enter /share/apps/g16/l502.exe)
 Integral symmetry usage will be decided dynamically.
 Closed shell SCF:
 Using DIIS extrapolation, IDIIS=  1040.
 NGot=  4294967296 LenX=  4293717438 LenY=  4293108258
 Requested convergence on RMS density matrix=1.00D-08 within  20 cycles.
 Requested convergence on MAX density matrix=1.00D-06.
 Requested convergence on             energy=1.00D-06.
 No special actions if energy rises.
 Fock matrices will be formed incrementally for  20 cycles.
 Integral accuracy reduced to 1.0D-05 until final iterations.

 Cycle   1  Pass 0  IDiag  1:
 FoFJK:  IHMeth= 1 ICntrl=       0 DoSepK=T KAlg= 0 I1Cent=           0 FoldK=F
 IRaf=         1 NMat=       1 IRICut=       1 DoRegI=T DoRafI=F ISym2E= 0 IDoP0=0 IntGTp=1.
 FoFCou: FMM=T IPFlag=           0 FMFlag=      100000 FMFlg1=        2001
         NFxFlg=           0 DoJE=T BraDBF=F KetDBF=F FulRan=T
         wScrn=  0.000000 ICntrl=       500 IOpCl=  0 I1Cent=           0 NGrid=           0
         NMat0=    1 NMatS0=      1 NMatT0=    0 NMatD0=    1 NMtDS0=    0 NMtDT0=    0
 Symmetry not used in FoFCou.
 FMM levels:  10  Number of levels for PrismC:   9
 E= -2048.23975349904    
 DIIS: error= 2.23D-02 at cycle   1 NSaved=   1.
 NSaved= 1 IEnMin= 1 EnMin= -2048.23975349904     IErMin= 1 ErrMin= 2.23D-02
 ErrMax= 2.23D-02  0.00D+00 EMaxC= 1.00D-01 BMatC= 8.32D-01 BMatP= 8.32D-01
 IDIUse=3 WtCom= 7.77D-01 WtEn= 2.23D-01
 Coeff-Com:  0.100D+01
 Coeff-En:   0.100D+01
 Coeff:      0.100D+01
 Gap=     0.275 Goal=   None    Shift=    0.000
 GapD=    0.275 DampG=1.000 DampE=0.500 DampFc=0.5000 IDamp=-1.
 Damping current iteration by 5.00D-01
 RMSDP=1.59D-03 MaxDP=1.30D-01              OVMax= 2.05D-01

 Cycle   2  Pass 0  IDiag  1:
 RMSU=  7.94D-04    CP:  9.97D-01
 E= -2048.43792519917     Delta-E=       -0.198171700130 Rises=F Damp=T
 DIIS: error= 1.15D-02 at cycle   2 NSaved=   2.
 NSaved= 2 IEnMin= 2 EnMin= -2048.43792519917     IErMin= 2 ErrMin= 1.15D-02
 ErrMax= 1.15D-02  0.00D+00 EMaxC= 1.00D-01 BMatC= 1.45D-01 BMatP= 8.32D-01
 IDIUse=3 WtCom= 8.85D-01 WtEn= 1.15D-01
 Coeff-Com: -0.197D+00 0.120D+01
 Coeff-En:   0.000D+00 0.100D+01
 Coeff:     -0.175D+00 0.117D+01
 Gap=     0.360 Goal=   None    Shift=    0.000
 RMSDP=5.92D-04 MaxDP=3.38D-02 DE=-1.98D-01 OVMax= 1.52D-01

 Cycle   3  Pass 0  IDiag  1:
 RMSU=  5.80D-04    CP:  9.94D-01  1.14D+00
 E= -2048.61915671434     Delta-E=       -0.181231515168 Rises=F Damp=F
 DIIS: error= 7.16D-03 at cycle   3 NSaved=   3.
 NSaved= 3 IEnMin= 3 EnMin= -2048.61915671434     IErMin= 3 ErrMin= 7.16D-03
 ErrMax= 7.16D-03  0.00D+00 EMaxC= 1.00D-01 BMatC= 6.18D-02 BMatP= 1.45D-01
 IDIUse=3 WtCom= 9.28D-01 WtEn= 7.16D-02
 Coeff-Com: -0.231D+00 0.545D+00 0.686D+00
 Coeff-En:   0.000D+00 0.000D+00 0.100D+01
 Coeff:     -0.215D+00 0.506D+00 0.708D+00
 Gap=     0.280 Goal=   None    Shift=    0.000
 RMSDP=3.54D-04 MaxDP=3.38D-02 DE=-1.81D-01 OVMax= 7.52D-02

 Cycle   4  Pass 0  IDiag  1:
 RMSU=  2.03D-04    CP:  9.94D-01  1.42D+00  6.81D-01
 E= -2048.66607823746     Delta-E=       -0.046921523116 Rises=F Damp=F
 DIIS: error= 2.45D-03 at cycle   4 NSaved=   4.
 NSaved= 4 IEnMin= 4 EnMin= -2048.66607823746     IErMin= 4 ErrMin= 2.45D-03
 ErrMax= 2.45D-03  0.00D+00 EMaxC= 1.00D-01 BMatC= 8.83D-03 BMatP= 6.18D-02
 IDIUse=3 WtCom= 9.76D-01 WtEn= 2.45D-02
 Coeff-Com: -0.970D-01 0.188D+00 0.380D+00 0.529D+00
 Coeff-En:   0.000D+00 0.000D+00 0.587D-01 0.941D+00
 Coeff:     -0.946D-01 0.183D+00 0.372D+00 0.539D+00
 Gap=     0.284 Goal=   None    Shift=    0.000
 RMSDP=1.27D-04 MaxDP=1.21D-02 DE=-4.69D-02 OVMax= 1.31D-02

 Cycle   5  Pass 0  IDiag  1:
 RMSU=  6.23D-05    CP:  9.93D-01  1.39D+00  8.11D-01  6.15D-01
 E= -2048.67337848558     Delta-E=       -0.007300248125 Rises=F Damp=F
 DIIS: error= 5.52D-04 at cycle   5 NSaved=   5.
 NSaved= 5 IEnMin= 5 EnMin= -2048.67337848558     IErMin= 5 ErrMin= 5.52D-04
 ErrMax= 5.52D-04  0.00D+00 EMaxC= 1.00D-01 BMatC= 2.83D-04 BMatP= 8.83D-03
 IDIUse=3 WtCom= 9.94D-01 WtEn= 5.52D-03
 Coeff-Com: -0.242D-01 0.414D-01 0.119D+00 0.235D+00 0.629D+00
 Coeff-En:   0.000D+00 0.000D+00 0.000D+00 0.000D+00 0.100D+01
 Coeff:     -0.241D-01 0.412D-01 0.118D+00 0.233D+00 0.631D+00
 Gap=     0.284 Goal=   None    Shift=    0.000
 RMSDP=2.62D-05 MaxDP=1.91D-03 DE=-7.30D-03 OVMax= 3.12D-03

 Failed to achieve initial convergence to 1.0D-08 in  6 cycles.
 Switch to full accuracy anyway.
 Cycle   6  Pass 1  IDiag  1:
 E= -2048.67362126610     Delta-E=       -0.000242780521 Rises=F Damp=F
 DIIS: error= 2.10D-04 at cycle   1 NSaved=   1.
 NSaved= 1 IEnMin= 1 EnMin= -2048.67362126610     IErMin= 1 ErrMin= 2.10D-04
 ErrMax= 2.10D-04  0.00D+00 EMaxC= 1.00D-01 BMatC= 7.92D-05 BMatP= 7.92D-05
 IDIUse=3 WtCom= 9.98D-01 WtEn= 2.10D-03
 Coeff-Com:  0.100D+01
 Coeff-En:   0.100D+01
 Coeff:      0.100D+01
 Gap=     0.284 Goal=   None    Shift=    0.000
 RMSDP=2.62D-05 MaxDP=1.91D-03 DE=-2.43D-04 OVMax= 2.68D-03

 Cycle   7  Pass 1  IDiag  1:
 RMSU=  1.21D-04    CP:  1.00D+00
 E= -2048.67368025151     Delta-E=       -0.000058985410 Rises=F Damp=F
 DIIS: error= 2.34D-04 at cycle   2 NSaved=   2.
 NSaved= 2 IEnMin= 2 EnMin= -2048.67368025151     IErMin= 1 ErrMin= 2.10D-04
 ErrMax= 2.34D-04  0.00D+00 EMaxC= 1.00D-01 BMatC= 4.30D-05 BMatP= 7.92D-05
 IDIUse=3 WtCom= 9.98D-01 WtEn= 2.34D-03
 Coeff-Com:  0.397D+00 0.603D+00
 Coeff-En:   0.000D+00 0.100D+01
 Coeff:      0.396D+00 0.604D+00
 Gap=     0.284 Goal=   None    Shift=    0.000
 RMSDP=1.18D-05 MaxDP=1.11D-03 DE=-5.90D-05 OVMax= 1.46D-03

 Cycle   8  Pass 1  IDiag  1:
 RMSU=  1.14D-05    CP:  1.00D+00  1.03D+00
 E= -2048.67371068522     Delta-E=       -0.000030433708 Rises=F Damp=F
 DIIS: error= 9.81D-05 at cycle   3 NSaved=   3.
 NSaved= 3 IEnMin= 3 EnMin= -2048.67371068522     IErMin= 3 ErrMin= 9.81D-05
 ErrMax= 9.81D-05  0.00D+00 EMaxC= 1.00D-01 BMatC= 1.10D-05 BMatP= 4.30D-05
 IDIUse=1 WtCom= 1.00D+00 WtEn= 0.00D+00
 Coeff-Com: -0.191D-01 0.324D+00 0.695D+00
 Coeff:     -0.191D-01 0.324D+00 0.695D+00
 Gap=     0.284 Goal=   None    Shift=    0.000
 RMSDP=5.82D-06 MaxDP=4.63D-04 DE=-3.04D-05 OVMax= 5.43D-04

 Cycle   9  Pass 1  IDiag  1:
 RMSU=  3.84D-06    CP:  1.00D+00  1.05D+00  7.48D-01
 E= -2048.67372080294     Delta-E=       -0.000010117722 Rises=F Damp=F
 DIIS: error= 3.63D-05 at cycle   4 NSaved=   4.
 NSaved= 4 IEnMin= 4 EnMin= -2048.67372080294     IErMin= 4 ErrMin= 3.63D-05
 ErrMax= 3.63D-05  0.00D+00 EMaxC= 1.00D-01 BMatC= 5.18D-07 BMatP= 1.10D-05
 IDIUse=1 WtCom= 1.00D+00 WtEn= 0.00D+00
 Coeff-Com: -0.292D-01 0.918D-01 0.260D+00 0.677D+00
 Coeff:     -0.292D-01 0.918D-01 0.260D+00 0.677D+00
 Gap=     0.284 Goal=   None    Shift=    0.000
 RMSDP=1.43D-06 MaxDP=1.31D-04 DE=-1.01D-05 OVMax= 4.98D-04

 Cycle  10  Pass 1  IDiag  1:
 RMSU=  1.29D-06    CP:  1.00D+00  1.06D+00  7.81D-01  1.09D+00
 E= -2048.67372163841     Delta-E=       -0.000000835466 Rises=F Damp=F
 DIIS: error= 1.44D-05 at cycle   5 NSaved=   5.
 NSaved= 5 IEnMin= 5 EnMin= -2048.67372163841     IErMin= 5 ErrMin= 1.44D-05
 ErrMax= 1.44D-05  0.00D+00 EMaxC= 1.00D-01 BMatC= 1.18D-07 BMatP= 5.18D-07
 IDIUse=1 WtCom= 1.00D+00 WtEn= 0.00D+00
 Coeff-Com: -0.223D-02-0.592D-01-0.121D+00 0.195D+00 0.987D+00
 Coeff:     -0.223D-02-0.592D-01-0.121D+00 0.195D+00 0.987D+00
 Gap=     0.284 Goal=   None    Shift=    0.000
 RMSDP=1.21D-06 MaxDP=7.50D-05 DE=-8.35D-07 OVMax= 2.48D-04

 Cycle  11  Pass 1  IDiag  1:
 RMSU=  5.00D-07    CP:  1.00D+00  1.06D+00  7.89D-01  1.37D+00  1.18D+00
 E= -2048.67372189644     Delta-E=       -0.000000258029 Rises=F Damp=F
 DIIS: error= 7.77D-06 at cycle   6 NSaved=   6.
 NSaved= 6 IEnMin= 6 EnMin= -2048.67372189644     IErMin= 6 ErrMin= 7.77D-06
 ErrMax= 7.77D-06  0.00D+00 EMaxC= 1.00D-01 BMatC= 2.78D-08 BMatP= 1.18D-07
 IDIUse=1 WtCom= 1.00D+00 WtEn= 0.00D+00
 Coeff-Com:  0.457D-02-0.477D-01-0.113D+00-0.386D-02 0.525D+00 0.634D+00
 Coeff:      0.457D-02-0.477D-01-0.113D+00-0.386D-02 0.525D+00 0.634D+00
 Gap=     0.284 Goal=   None    Shift=    0.000
 RMSDP=3.62D-07 MaxDP=3.62D-05 DE=-2.58D-07 OVMax= 1.27D-04

 Cycle  12  Pass 1  IDiag  1:
 RMSU=  1.84D-07    CP:  1.00D+00  1.06D+00  7.91D-01  1.44D+00  1.30D+00
                    CP:  9.36D-01
 E= -2048.67372193678     Delta-E=       -0.000000040337 Rises=F Damp=F
 DIIS: error= 1.32D-06 at cycle   7 NSaved=   7.
 NSaved= 7 IEnMin= 7 EnMin= -2048.67372193678     IErMin= 7 ErrMin= 1.32D-06
 ErrMax= 1.32D-06  0.00D+00 EMaxC= 1.00D-01 BMatC= 6.80D-10 BMatP= 2.78D-08
 IDIUse=1 WtCom= 1.00D+00 WtEn= 0.00D+00
 Coeff-Com:  0.862D-03-0.574D-02-0.147D-01-0.813D-02 0.347D-01 0.111D+00
 Coeff-Com:  0.882D+00
 Coeff:      0.862D-03-0.574D-02-0.147D-01-0.813D-02 0.347D-01 0.111D+00
 Coeff:      0.882D+00
 Gap=     0.284 Goal=   None    Shift=    0.000
 RMSDP=8.63D-08 MaxDP=5.27D-06 DE=-4.03D-08 OVMax= 2.36D-05

 Cycle  13  Pass 1  IDiag  1:
 RMSU=  4.96D-08    CP:  1.00D+00  1.06D+00  7.91D-01  1.45D+00  1.32D+00
                    CP:  1.03D+00  1.15D+00
 E= -2048.67372193836     Delta-E=       -0.000000001582 Rises=F Damp=F
 DIIS: error= 4.61D-07 at cycle   8 NSaved=   8.
 NSaved= 8 IEnMin= 8 EnMin= -2048.67372193836     IErMin= 8 ErrMin= 4.61D-07
 ErrMax= 4.61D-07  0.00D+00 EMaxC= 1.00D-01 BMatC= 2.88D-10 BMatP= 6.80D-10
 IDIUse=1 WtCom= 1.00D+00 WtEn= 0.00D+00
 Coeff-Com: -0.698D-03 0.897D-02 0.205D-01-0.148D-02-0.111D+00-0.978D-01
 Coeff-Com:  0.435D+00 0.747D+00
 Coeff:     -0.698D-03 0.897D-02 0.205D-01-0.148D-02-0.111D+00-0.978D-01
 Coeff:      0.435D+00 0.747D+00
 Gap=     0.284 Goal=   None    Shift=    0.000
 RMSDP=4.33D-08 MaxDP=2.36D-06 DE=-1.58D-09 OVMax= 9.85D-06

 Cycle  14  Pass 1  IDiag  1:
 RMSU=  2.70D-08    CP:  1.00D+00  1.06D+00  7.90D-01  1.45D+00  1.33D+00
                    CP:  1.06D+00  1.29D+00  1.09D+00
 E= -2048.67372193878     Delta-E=       -0.000000000418 Rises=F Damp=F
 DIIS: error= 1.86D-07 at cycle   9 NSaved=   9.
 NSaved= 9 IEnMin= 9 EnMin= -2048.67372193878     IErMin= 9 ErrMin= 1.86D-07
 ErrMax= 1.86D-07  0.00D+00 EMaxC= 1.00D-01 BMatC= 2.56D-11 BMatP= 2.88D-10
 IDIUse=1 WtCom= 1.00D+00 WtEn= 0.00D+00
 Coeff-Com: -0.375D-03 0.423D-02 0.984D-02 0.552D-03-0.478D-01-0.513D-01
 Coeff-Com:  0.772D-01 0.279D+00 0.729D+00
 Coeff:     -0.375D-03 0.423D-02 0.984D-02 0.552D-03-0.478D-01-0.513D-01
 Coeff:      0.772D-01 0.279D+00 0.729D+00
 Gap=     0.284 Goal=   None    Shift=    0.000
 RMSDP=1.31D-08 MaxDP=6.98D-07 DE=-4.18D-10 OVMax= 3.34D-06

 Cycle  15  Pass 1  IDiag  1:
 RMSU=  8.75D-09    CP:  1.00D+00  1.06D+00  7.90D-01  1.45D+00  1.33D+00
                    CP:  1.07D+00  1.31D+00  1.24D+00  1.11D+00
 E= -2048.67372193852     Delta-E=        0.000000000256 Rises=F Damp=F
 DIIS: error= 6.94D-08 at cycle  10 NSaved=  10.
 NSaved=10 IEnMin= 9 EnMin= -2048.67372193878     IErMin=10 ErrMin= 6.94D-08
 ErrMax= 6.94D-08  0.00D+00 EMaxC= 1.00D-01 BMatC= 5.45D-12 BMatP= 2.56D-11
 IDIUse=1 WtCom= 1.00D+00 WtEn= 0.00D+00
 Coeff-Com:  0.209D-04-0.495D-03-0.104D-02 0.159D-03 0.736D-02 0.297D-02
 Coeff-Com: -0.651D-01-0.713D-01 0.291D+00 0.836D+00
 Coeff:      0.209D-04-0.495D-03-0.104D-02 0.159D-03 0.736D-02 0.297D-02
 Coeff:     -0.651D-01-0.713D-01 0.291D+00 0.836D+00
 Gap=     0.284 Goal=   None    Shift=    0.000
 RMSDP=7.09D-09 MaxDP=3.53D-07 DE= 2.56D-10 OVMax= 1.39D-06

 SCF Done:  E(RwB97XD) =  -2048.67372194     A.U. after   15 cycles
            NFock= 15  Conv=0.71D-08     -V/T= 2.0052
 KE= 2.038155786822D+03 PE=-1.583918061031D+04 EE= 6.223189496914D+03
 Leave Link  502 at Tue Jan 23 21:19:56 2018, MaxMem=  4294967296 cpu:           21542.6 elap:             695.7
 (Enter /share/apps/g16/l601.exe)
 Copying SCF densities to generalized density rwf, IOpCl= 0 IROHF=0.

 **********************************************************************

            Population analysis using the SCF density.

 **********************************************************************

 Orbital symmetries:
       Occupied  (A) (A) (A) (A) (A) (A) (A) (A) (A) (A) (A) (A)
                 (A) (A) (A) (A) (A) (A) (A) (A) (A) (A) (A) (A)
                 (A) (A) (A) (A) (A) (A) (A) (A) (A) (A) (A) (A)
                 (A) (A) (A) (A) (A) (A) (A) (A) (A) (A) (A) (A)
                 (A) (A) (A) (A) (A) (A) (A) (A) (A) (A) (A) (A)
                 (A) (A) (A) (A) (A) (A) (A) (A) (A) (A) (A) (A)
                 (A) (A) (A) (A) (A) (A) (A) (A) (A) (A) (A) (A)
                 (A) (A) (A) (A) (A) (A) (A) (A) (A) (A) (A) (A)
                 (A) (A) (A) (A) (A) (A) (A) (A) (A) (A) (A) (A)
                 (A) (A) (A) (A) (A) (A) (A) (A) (A) (A) (A) (A)
                 (A) (A) (A) (A) (A) (A) (A) (A) (A) (A) (A) (A)
                 (A) (A) (A) (A) (A) (A) (A) (A) (A) (A) (A) (A)
                 (A) (A) (A) (A) (A) (A) (A) (A) (A) (A)
       Virtual   (A) (A) (A) (A) (A) (A) (A) (A) (A) (A) (A) (A)
                 (A) (A) (A) (A) (A) (A) (A) (A) (A) (A) (A) (A)
                 (A) (A) (A) (A) (A) (A) (A) (A) (A) (A) (A) (A)
                 (A) (A) (A) (A) (A) (A) (A) (A) (A) (A) (A) (A)
                 (A) (A) (A) (A) (A) (A) (A) (A) (A) (A) (A) (A)
                 (A) (A) (A) (A) (A) (A) (A) (A) (A) (A) (A) (A)
                 (A) (A) (A) (A) (A) (A) (A) (A) (A) (A) (A) (A)
                 (A) (A) (A) (A) (A) (A) (A) (A) (A) (A) (A) (A)
                 (A) (A) (A) (A) (A) (A) (A) (A) (A) (A) (A) (A)
                 (A) (A) (A) (A) (A) (A) (A) (A) (A) (A) (A) (A)
                 (A) (A) (A) (A) (A) (A) (A) (A) (A) (A) (A) (A)
                 (A) (A) (A) (A) (A) (A) (A) (A) (A) (A) (A) (A)
                 (A) (A) (A) (A) (A) (A) (A) (A) (A) (A) (A) (A)
                 (A) (A) (A) (A) (A) (A) (A) (A) (A) (A) (A) (A)
                 (A) (A) (A) (A) (A) (A) (A) (A) (A) (A) (A) (A)
                 (A) (A) (A) (A) (A) (A) (A) (A) (A) (A) (A) (A)
                 (A) (A) (A) (A) (A) (A) (A) (A) (A) (A) (A) (A)
                 (A) (A) (A) (A) (A) (A) (A) (A) (A) (A) (A) (A)
                 (A) (A) (A) (A) (A) (A) (A) (A) (A) (A) (A) (A)
                 (A) (A) (A) (A) (A) (A) (A) (A) (A) (A) (A) (A)
                 (A) (A) (A) (A) (A) (A) (A) (A) (A) (A) (A) (A)
                 (A) (A) (A) (A) (A) (A) (A) (A) (A) (A) (A) (A)
                 (A) (A) (A) (A) (A) (A) (A) (A) (A) (A) (A) (A)
                 (A) (A) (A) (A) (A) (A) (A) (A) (A) (A) (A) (A)
                 (A) (A) (A) (A) (A) (A) (A) (A) (A) (A) (A) (A)
                 (A) (A) (A) (A) (A) (A) (A) (A) (A) (A) (A) (A)
                 (A) (A) (A) (A) (A) (A) (A) (A) (A) (A) (A) (A)
                 (A) (A) (A) (A) (A) (A) (A) (A) (A) (A) (A) (A)
                 (A) (A) (A) (A) (A) (A) (A) (A) (A) (A) (A) (A)
                 (A) (A) (A) (A) (A) (A) (A) (A) (A) (A) (A) (A)
                 (A) (A) (A) (A) (A) (A) (A) (A) (A) (A) (A) (A)
                 (A) (A) (A) (A) (A) (A) (A) (A) (A) (A) (A) (A)
                 (A) (A) (A) (A) (A) (A) (A) (A) (A) (A) (A) (A)
                 (A) (A) (A) (A) (A) (A) (A) (A) (A) (A) (A) (A)
                 (A) (A) (A) (A) (A) (A) (A) (A) (A) (A) (A) (A)
                 (A) (A) (A) (A) (A) (A) (A) (A) (A) (A) (A) (A)
                 (A) (A) (A) (A) (A) (A) (A) (A) (A) (A) (A) (A)
                 (A) (A) (A) (A) (A) (A) (A) (A) (A) (A) (A) (A)
                 (A) (A) (A) (A) (A) (A) (A) (A) (A) (A) (A) (A)
                 (A) (A) (A) (A) (A) (A) (A) (A) (A) (A) (A) (A)
                 (A) (A) (A) (A) (A) (A) (A) (A) (A) (A) (A) (A)
                 (A) (A) (A) (A) (A) (A) (A) (A) (A) (A) (A) (A)
                 (A) (A) (A) (A) (A) (A) (A) (A) (A) (A) (A) (A)
                 (A) (A) (A) (A) (A) (A) (A) (A) (A) (A) (A) (A)
                 (A) (A) (A) (A) (A) (A) (A) (A) (A) (A) (A) (A)
                 (A) (A) (A) (A) (A) (A) (A) (A) (A) (A) (A) (A)
                 (A) (A) (A) (A) (A) (A) (A) (A) (A) (A) (A) (A)
                 (A) (A) (A) (A) (A) (A) (A) (A) (A) (A) (A) (A)
                 (A) (A) (A) (A) (A) (A) (A)
 The electronic state is 1-A.
 Alpha  occ. eigenvalues --  -19.25909 -19.21958 -19.20629 -14.52412 -14.52149
 Alpha  occ. eigenvalues --  -14.49140 -14.48693 -14.47907 -14.47474 -14.46425
 Alpha  occ. eigenvalues --  -14.45751 -14.45033 -14.43492 -14.42671 -14.42272
 Alpha  occ. eigenvalues --  -14.42131 -14.41812 -14.41372 -14.40666 -14.40534
 Alpha  occ. eigenvalues --  -10.45511 -10.41089 -10.40087 -10.39159 -10.38153
 Alpha  occ. eigenvalues --  -10.37775 -10.37606 -10.36497 -10.35841 -10.35199
 Alpha  occ. eigenvalues --  -10.34932 -10.34469 -10.34321 -10.34038 -10.33774
 Alpha  occ. eigenvalues --  -10.33553 -10.33102 -10.31885 -10.31271 -10.31087
 Alpha  occ. eigenvalues --  -10.30799 -10.28944 -10.28065  -1.19482  -1.14912
 Alpha  occ. eigenvalues --   -1.13396  -1.12992  -1.11733  -1.10558  -1.09307
 Alpha  occ. eigenvalues --   -1.09042  -1.08308  -1.05392  -1.04073  -1.02505
 Alpha  occ. eigenvalues --   -1.00985  -1.00872  -0.99685  -0.98587  -0.97355
 Alpha  occ. eigenvalues --   -0.96567  -0.96082  -0.93055  -0.91028  -0.87317
 Alpha  occ. eigenvalues --   -0.85960  -0.84329  -0.84046  -0.83616  -0.82684
 Alpha  occ. eigenvalues --   -0.82470  -0.78862  -0.76649  -0.74857  -0.74373
 Alpha  occ. eigenvalues --   -0.73647  -0.73365  -0.73308  -0.71494  -0.70083
 Alpha  occ. eigenvalues --   -0.67486  -0.66721  -0.66630  -0.66387  -0.64450
 Alpha  occ. eigenvalues --   -0.64006  -0.63752  -0.63138  -0.62883  -0.62157
 Alpha  occ. eigenvalues --   -0.60675  -0.60393  -0.60136  -0.59503  -0.59490
 Alpha  occ. eigenvalues --   -0.59152  -0.57978  -0.57466  -0.56822  -0.56712
 Alpha  occ. eigenvalues --   -0.55996  -0.55987  -0.55692  -0.54851  -0.54318
 Alpha  occ. eigenvalues --   -0.53911  -0.53543  -0.53115  -0.52919  -0.52671
 Alpha  occ. eigenvalues --   -0.52392  -0.52134  -0.52056  -0.51159  -0.50569
 Alpha  occ. eigenvalues --   -0.50093  -0.49610  -0.49409  -0.49090  -0.48722
 Alpha  occ. eigenvalues --   -0.48535  -0.48458  -0.48225  -0.48041  -0.47396
 Alpha  occ. eigenvalues --   -0.47319  -0.46100  -0.45364  -0.43925  -0.43045
 Alpha  occ. eigenvalues --   -0.41604  -0.40177  -0.39494  -0.37654  -0.37601
 Alpha  occ. eigenvalues --   -0.37298  -0.37254  -0.36475  -0.35886  -0.34530
 Alpha  occ. eigenvalues --   -0.34173  -0.33864  -0.33773  -0.33146  -0.32646
 Alpha  occ. eigenvalues --   -0.32377  -0.31931  -0.31799  -0.31259  -0.31228
 Alpha  occ. eigenvalues --   -0.30665  -0.28398  -0.26227  -0.25336
 Alpha virt. eigenvalues --    0.03098   0.04342   0.07421   0.07548   0.08848
 Alpha virt. eigenvalues --    0.09030   0.09318   0.10574   0.11415   0.11963
 Alpha virt. eigenvalues --    0.12884   0.13836   0.14126   0.14632   0.14724
 Alpha virt. eigenvalues --    0.15832   0.16103   0.16550   0.16707   0.17957
 Alpha virt. eigenvalues --    0.18899   0.19470   0.19482   0.20303   0.20369
 Alpha virt. eigenvalues --    0.20830   0.21165   0.21433   0.21813   0.22181
 Alpha virt. eigenvalues --    0.22611   0.23445   0.23568   0.23656   0.23757
 Alpha virt. eigenvalues --    0.24023   0.24208   0.24904   0.25345   0.25988
 Alpha virt. eigenvalues --    0.26373   0.26615   0.27773   0.28377   0.28591
 Alpha virt. eigenvalues --    0.28980   0.29448   0.29622   0.30579   0.30976
 Alpha virt. eigenvalues --    0.31346   0.32037   0.32785   0.33532   0.33731
 Alpha virt. eigenvalues --    0.33995   0.34706   0.34749   0.35929   0.36435
 Alpha virt. eigenvalues --    0.36851   0.37683   0.38140   0.39495   0.39751
 Alpha virt. eigenvalues --    0.40226   0.40558   0.41143   0.41442   0.41804
 Alpha virt. eigenvalues --    0.42387   0.42585   0.43519   0.44014   0.44324
 Alpha virt. eigenvalues --    0.44854   0.45300   0.46083   0.46496   0.47496
 Alpha virt. eigenvalues --    0.47614   0.47803   0.48946   0.49388   0.49538
 Alpha virt. eigenvalues --    0.49964   0.50576   0.50707   0.51212   0.51463
 Alpha virt. eigenvalues --    0.51844   0.52208   0.52658   0.53136   0.53724
 Alpha virt. eigenvalues --    0.53899   0.54957   0.55159   0.55579   0.55669
 Alpha virt. eigenvalues --    0.56281   0.57262   0.57350   0.57555   0.58071
 Alpha virt. eigenvalues --    0.58233   0.58514   0.59119   0.59533   0.59828
 Alpha virt. eigenvalues --    0.60183   0.60213   0.60549   0.61107   0.61358
 Alpha virt. eigenvalues --    0.62090   0.62731   0.63038   0.63185   0.63787
 Alpha virt. eigenvalues --    0.63897   0.64375   0.64797   0.65025   0.65506
 Alpha virt. eigenvalues --    0.65911   0.66108   0.66643   0.67560   0.67871
 Alpha virt. eigenvalues --    0.67957   0.68895   0.68996   0.69072   0.69725
 Alpha virt. eigenvalues --    0.69801   0.70128   0.70765   0.71164   0.71572
 Alpha virt. eigenvalues --    0.72072   0.72835   0.73460   0.73652   0.74069
 Alpha virt. eigenvalues --    0.74538   0.74945   0.75032   0.75400   0.75565
 Alpha virt. eigenvalues --    0.76000   0.76329   0.76514   0.76922   0.77057
 Alpha virt. eigenvalues --    0.77170   0.77451   0.78074   0.78565   0.78694
 Alpha virt. eigenvalues --    0.79279   0.79676   0.80354   0.80463   0.80914
 Alpha virt. eigenvalues --    0.81455   0.81783   0.82527   0.83188   0.83314
 Alpha virt. eigenvalues --    0.83791   0.83984   0.84267   0.85301   0.85525
 Alpha virt. eigenvalues --    0.86012   0.86636   0.86850   0.87585   0.88024
 Alpha virt. eigenvalues --    0.88143   0.88499   0.89017   0.89401   0.90016
 Alpha virt. eigenvalues --    0.90329   0.90720   0.91139   0.91759   0.92174
 Alpha virt. eigenvalues --    0.92644   0.93245   0.93552   0.93607   0.94175
 Alpha virt. eigenvalues --    0.94913   0.95411   0.95674   0.96281   0.96776
 Alpha virt. eigenvalues --    0.97100   0.97629   0.97816   0.98177   0.99339
 Alpha virt. eigenvalues --    0.99403   0.99986   1.00722   1.01062   1.01312
 Alpha virt. eigenvalues --    1.02233   1.02369   1.02966   1.03435   1.04136
 Alpha virt. eigenvalues --    1.04326   1.04715   1.05261   1.05578   1.06071
 Alpha virt. eigenvalues --    1.06948   1.08027   1.08316   1.08843   1.09147
 Alpha virt. eigenvalues --    1.09792   1.10575   1.11044   1.11308   1.11865
 Alpha virt. eigenvalues --    1.12339   1.12801   1.13216   1.13880   1.13932
 Alpha virt. eigenvalues --    1.14664   1.14899   1.15599   1.16175   1.16690
 Alpha virt. eigenvalues --    1.16874   1.17337   1.17545   1.18060   1.18737
 Alpha virt. eigenvalues --    1.18892   1.19260   1.19793   1.20250   1.20659
 Alpha virt. eigenvalues --    1.20730   1.20861   1.21598   1.22093   1.22246
 Alpha virt. eigenvalues --    1.22599   1.22937   1.23162   1.23539   1.23715
 Alpha virt. eigenvalues --    1.24497   1.25263   1.25600   1.26439   1.26973
 Alpha virt. eigenvalues --    1.27478   1.27692   1.28460   1.28886   1.29036
 Alpha virt. eigenvalues --    1.29936   1.30399   1.31308   1.32515   1.32772
 Alpha virt. eigenvalues --    1.32998   1.33302   1.34189   1.34635   1.35307
 Alpha virt. eigenvalues --    1.36053   1.36242   1.37738   1.37927   1.38642
 Alpha virt. eigenvalues --    1.39221   1.40251   1.40719   1.41078   1.41879
 Alpha virt. eigenvalues --    1.43043   1.43350   1.44095   1.44856   1.46199
 Alpha virt. eigenvalues --    1.46957   1.47880   1.47932   1.48686   1.48844
 Alpha virt. eigenvalues --    1.49061   1.50087   1.50620   1.50830   1.51318
 Alpha virt. eigenvalues --    1.52401   1.53339   1.54585   1.55803   1.55867
 Alpha virt. eigenvalues --    1.56406   1.56920   1.57447   1.58076   1.58734
 Alpha virt. eigenvalues --    1.59289   1.59880   1.60399   1.60989   1.61684
 Alpha virt. eigenvalues --    1.62572   1.62972   1.63428   1.64123   1.64879
 Alpha virt. eigenvalues --    1.65055   1.66149   1.67039   1.67228   1.67573
 Alpha virt. eigenvalues --    1.67782   1.68305   1.68603   1.69328   1.69837
 Alpha virt. eigenvalues --    1.70515   1.70855   1.70882   1.71495   1.71645
 Alpha virt. eigenvalues --    1.72436   1.72862   1.73308   1.74026   1.74240
 Alpha virt. eigenvalues --    1.74671   1.74982   1.75290   1.75614   1.75823
 Alpha virt. eigenvalues --    1.76302   1.76659   1.77022   1.77716   1.78064
 Alpha virt. eigenvalues --    1.78700   1.79256   1.79429   1.79733   1.79850
 Alpha virt. eigenvalues --    1.80028   1.80259   1.80514   1.81319   1.81599
 Alpha virt. eigenvalues --    1.81913   1.82380   1.82730   1.83389   1.83586
 Alpha virt. eigenvalues --    1.83685   1.84167   1.84731   1.84970   1.85381
 Alpha virt. eigenvalues --    1.86082   1.87026   1.87521   1.87715   1.88225
 Alpha virt. eigenvalues --    1.88576   1.88582   1.89462   1.89614   1.89951
 Alpha virt. eigenvalues --    1.90681   1.91366   1.91671   1.91916   1.92544
 Alpha virt. eigenvalues --    1.92898   1.93538   1.93853   1.94360   1.94898
 Alpha virt. eigenvalues --    1.95922   1.96085   1.96894   1.97623   1.98212
 Alpha virt. eigenvalues --    1.98954   2.00047   2.00316   2.00965   2.02051
 Alpha virt. eigenvalues --    2.02593   2.02987   2.03668   2.04928   2.04997
 Alpha virt. eigenvalues --    2.05184   2.05483   2.06715   2.07103   2.07932
 Alpha virt. eigenvalues --    2.08263   2.08626   2.09585   2.09889   2.10644
 Alpha virt. eigenvalues --    2.11059   2.11870   2.12949   2.13379   2.14000
 Alpha virt. eigenvalues --    2.14385   2.15520   2.16863   2.18214   2.19320
 Alpha virt. eigenvalues --    2.19917   2.20487   2.20858   2.21168   2.21443
 Alpha virt. eigenvalues --    2.21792   2.22421   2.23393   2.23978   2.24284
 Alpha virt. eigenvalues --    2.24989   2.25828   2.26177   2.26782   2.26941
 Alpha virt. eigenvalues --    2.27950   2.28668   2.29371   2.29947   2.30334
 Alpha virt. eigenvalues --    2.30951   2.31352   2.32359   2.32896   2.33528
 Alpha virt. eigenvalues --    2.33962   2.34475   2.34953   2.35564   2.36198
 Alpha virt. eigenvalues --    2.36918   2.37383   2.38102   2.39139   2.39464
 Alpha virt. eigenvalues --    2.40205   2.40819   2.41153   2.41536   2.42155
 Alpha virt. eigenvalues --    2.42521   2.43182   2.43283   2.43720   2.44782
 Alpha virt. eigenvalues --    2.45965   2.46280   2.47049   2.47834   2.48627
 Alpha virt. eigenvalues --    2.49574   2.49629   2.50297   2.50839   2.52283
 Alpha virt. eigenvalues --    2.53651   2.53851   2.54986   2.55550   2.56635
 Alpha virt. eigenvalues --    2.57063   2.58210   2.58358   2.58898   2.60040
 Alpha virt. eigenvalues --    2.61197   2.61527   2.61804   2.62348   2.63557
 Alpha virt. eigenvalues --    2.64714   2.65108   2.65341   2.65991   2.67336
 Alpha virt. eigenvalues --    2.68130   2.68513   2.68971   2.69175   2.69899
 Alpha virt. eigenvalues --    2.70934   2.71226   2.71482   2.72152   2.73895
 Alpha virt. eigenvalues --    2.74227   2.74493   2.75297   2.76376   2.76944
 Alpha virt. eigenvalues --    2.78714   2.79090   2.79647   2.79689   2.79875
 Alpha virt. eigenvalues --    2.80107   2.80462   2.80981   2.81746   2.81935
 Alpha virt. eigenvalues --    2.82524   2.82828   2.83711   2.84360   2.84660
 Alpha virt. eigenvalues --    2.85454   2.86155   2.86568   2.87163   2.87849
 Alpha virt. eigenvalues --    2.88645   2.89794   2.90402   2.93074   2.94465
 Alpha virt. eigenvalues --    2.95729   2.96419   2.98240   2.98934   2.99815
 Alpha virt. eigenvalues --    3.00786   3.03157   3.04220   3.05533   3.07457
 Alpha virt. eigenvalues --    3.09896   3.11050   3.11420   3.14423   3.14913
 Alpha virt. eigenvalues --    3.15371   3.16177   3.17084   3.19007   3.21368
 Alpha virt. eigenvalues --    3.22326   3.22518   3.23566   3.24759   3.28498
 Alpha virt. eigenvalues --    3.45727   3.47077   3.49187   3.49608   3.50399
 Alpha virt. eigenvalues --    3.53137   3.54046   3.56534   3.58663   3.60292
 Alpha virt. eigenvalues --    3.63030   3.70940   3.74610
          Condensed to atoms (all electrons):
 Mulliken charges:
               1
     1  N   -0.312450
     2  C    0.180790
     3  C    0.039951
     4  N   -0.260219
     5  C    0.134888
     6  H    0.027784
     7  N   -0.285527
     8  C    0.128603
     9  H    0.009326
    10  N   -0.289376
    11  C    0.244620
    12  C    0.121713
    13  N   -0.056083
    14  H    0.107626
    15  H    0.087701
    16  H    0.026110
    17  H    0.033487
    18  H    0.027181
    19  N   -0.304564
    20  C    0.229369
    21  C    0.180113
    22  N   -0.085479
    23  H    0.107695
    24  H    0.112959
    25  N   -0.279883
    26  C    0.198369
    27  N   -0.112141
    28  H    0.119313
    29  C    0.129991
    30  O   -0.316590
    31  C    0.029446
    32  N   -0.221157
    33  C    0.120723
    34  H    0.027816
    35  H    0.028199
    36  H    0.027501
    37  H    0.024667
    38  H    0.062443
    39  H    0.059142
    40  H    0.071393
    41  H    0.031192
    42  C   -0.114103
    43  O   -0.265000
    44  C    0.177188
    45  H    0.134716
    46  N   -0.135023
    47  O   -0.347853
    48  C    0.359404
    49  H    0.047642
    50  C    0.173078
    51  C    0.040719
    52  N   -0.291556
    53  H    0.036780
    54  H    0.024449
    55  H    0.028006
    56  H    0.122214
    57  H    0.115814
    58  N   -0.068388
    59  C    0.104146
    60  C    0.229857
    61  N   -0.281101
    62  H    0.058478
    63  C    0.171614
    64  N   -0.301364
    65  H    0.031535
    66  C    0.131487
    67  N   -0.261903
    68  C    0.024002
    69  C    0.165264
    70  N   -0.316742
 Sum of Mulliken charges =  -0.00000
 Mulliken charges with hydrogens summed into heavy atoms:
               1
     1  N   -0.312450
     2  C    0.267567
     3  C    0.039951
     4  N   -0.260219
     5  C    0.162672
     7  N   -0.285527
     8  C    0.137929
    10  N   -0.289376
    11  C    0.244620
    12  C    0.121713
    13  N    0.139243
    19  N   -0.304564
    20  C    0.229369
    21  C    0.260479
    22  N    0.135174
    25  N   -0.279883
    26  C    0.198369
    27  N    0.007172
    29  C    0.129991
    30  O   -0.316590
    31  C    0.029446
    32  N   -0.221157
    33  C    0.148539
    42  C   -0.082911
    43  O   -0.265000
    44  C    0.177188
    46  N   -0.000306
    47  O   -0.347853
    48  C    0.359404
    50  C    0.220720
    51  C    0.233697
    52  N   -0.291556
    58  N    0.169640
    59  C    0.104146
    60  C    0.229857
    61  N   -0.281101
    63  C    0.230092
    64  N   -0.301364
    66  C    0.163022
    67  N   -0.261903
    68  C    0.024002
    69  C    0.254500
    70  N   -0.316742
 Electronic spatial extent (au):  <R**2>=          22837.0304
 Charge=             -0.0000 electrons
 Dipole moment (field-independent basis, Debye):
    X=              7.2634    Y=              5.5844    Z=              3.4263  Tot=              9.7817
 Quadrupole moment (field-independent basis, Debye-Ang):
   XX=           -148.1096   YY=           -222.5157   ZZ=           -255.1807
   XY=              3.8560   XZ=              9.1209   YZ=            -11.5188
 Traceless Quadrupole moment (field-independent basis, Debye-Ang):
   XX=             60.4924   YY=            -13.9137   ZZ=            -46.5787
   XY=              3.8560   XZ=              9.1209   YZ=            -11.5188
 Octapole moment (field-independent basis, Debye-Ang**2):
  XXX=            -16.4113  YYY=            123.7273  ZZZ=              5.2016  XYY=             70.2017
  XXY=            -49.6418  XXZ=            -52.0797  XZZ=             16.2660  YZZ=             22.1891
  YYZ=             60.7999  XYZ=             40.7882
 Hexadecapole moment (field-independent basis, Debye-Ang**3):
 XXXX=         -15144.1646 YYYY=          -5940.0348 ZZZZ=          -3166.5368 XXXY=            461.4767
 XXXZ=             32.3081 YYYX=             17.8811 YYYZ=           -119.6702 ZZZX=             17.2634
 ZZZY=            -31.9716 XXYY=          -3761.1184 XXZZ=          -3984.2965 YYZZ=          -1533.5669
 XXYZ=             81.0597 YYXZ=            239.4747 ZZXY=              0.8258
 N-N= 5.529161604638D+03 E-N=-1.583918061553D+04  KE= 2.038155786822D+03
 No NMR shielding tensors so no spin-rotation constants.
 Leave Link  601 at Tue Jan 23 21:19:58 2018, MaxMem=  4294967296 cpu:              48.9 elap:               1.7
 (Enter /share/apps/g16/l9999.exe)
 1\1\GINC-COMPUTE-0-3\SP\RwB97XD\CC-pVDZ\C23H27N17O3\SATYA\23-Jan-2018\
 0\\#p wb97xd/cc-pvdz sp scf=(maxcycles=20)\\Base pair stacking\\0,1\N,
 0,5.99217,3.97487,-7.97606\C,0,7.09163,4.94869,-8.12047\C,0,4.047,3.04
 204,-7.54775\N,0,4.86338,2.03132,-8.03427\C,0,6.0026,2.63377,-8.27284\
 H,0,6.89215,2.14341,-8.66931\N,0,2.19778,4.22661,-6.68743\C,0,2.98072,
 5.31026,-6.7049\H,0,2.5124,6.22803,-6.35187\N,0,4.24934,5.42986,-7.091
 17\C,0,4.72891,4.2457,-7.50613\C,0,2.70974,3.05042,-7.11117\N,0,1.9297
 6,1.96759,-7.09449\H,0,2.2669,1.0761,-7.39912\H,0,0.98236,2.01053,-6.7
 7709\H,0,7.37425,4.99473,-9.07869\H,0,6.78048,5.85049,-7.82203\H,0,7.8
 6836,4.6633,-7.55901\N,0,2.52851,5.6957,-3.44498\C,0,1.39092,4.94863,-
 3.25571\C,0,2.59525,7.17069,-3.41949\N,0,-2.02153,4.76995,-2.63521\H,0
 ,-2.71519,4.05846,-2.52635\H,0,-2.32823,5.71873,-2.55477\N,0,0.15292,5
 .43261,-3.01657\C,0,-0.73751,4.46638,-2.87818\N,0,-0.44035,3.12797,-2.
 96683\H,0,-1.18526,2.45877,-2.8475\C,0,0.82637,2.6073,-3.21218\O,0,0.9
 8737,1.3821,-3.273\C,0,1.79356,3.63328,-3.3631\N,0,3.15651,3.55612,-3.
 61473\C,0,3.54896,4.80054,-3.65479\H,0,4.57527,5.12251,-3.83455\H,0,2.
 92507,7.50637,-4.30116\H,0,1.68397,7.54045,-3.24311\H,0,3.21902,7.4653
 3,-2.69637\H,0,-5.43426,-0.33344,-2.80032\H,0,-4.98036,-0.61886,-1.121
 88\H,0,-4.57176,0.91207,-1.89691\H,0,-1.98899,-3.64285,-3.36995\C,0,-2
 .08271,-2.57667,-3.1633\O,0,0.17768,-2.08808,-3.69151\C,0,-0.94179,-1.
 72866,-3.32764\H,0,-0.38607,0.23245,-3.14444\N,0,-1.1687,-0.39787,-3.0
 3997\O,0,-2.4508,1.36173,-2.39403\C,0,-2.34721,0.16979,-2.62473\H,0,-4
 .14279,-2.65404,-2.61934\C,0,-3.24578,-2.05234,-2.75961\C,0,-4.68105,-
 0.15155,-2.04822\N,0,-3.40111,-0.71241,-2.48974\H,0,-5.26282,5.23525,-
 4.23706\H,0,-3.75206,5.35598,-3.6328\H,0,-4.90491,4.56046,-2.79485\H,0
 ,-1.0153,-0.22573,-6.92067\H,0,-2.67904,-0.42279,-6.59938\N,0,-1.85958
 ,0.14793,-6.53632\C,0,-1.8923,1.35357,-5.96489\C,0,-2.92947,3.18335,-4
 .85228\N,0,-1.81353,3.92775,-4.78174\H,0,0.16052,3.82049,-5.32232\C,0,
 -0.7879,3.28518,-5.33679\N,0,-0.7531,2.07761,-5.90964\H,0,-6.04446,2.4
 2692,-4.43177\C,0,-4.98515,2.43751,-4.69001\N,0,-4.35737,1.46291,-5.30
 134\C,0,-3.05307,1.92292,-5.41047\C,0,-4.55517,4.76579,-3.70902\N,0,-4
 .18174,3.51006,-4.3885\\Version=EM64L-G16RevA.03\State=1-A\HF=-2048.67
 37219\RMSD=7.087e-09\Dipole=-3.6528648,1.0795111,0.549207\Quadrupole=2
 8.6441022,-7.9715378,-20.6725644,22.6791755,-24.3419629,5.4275409\PG=C
 01 [X(C23H27N17O3)]\\@


 TO DRY ONE'S EYES AND LAUGH AT A FALL
 AND BAFFLED, GET UP AND BEGIN AGAIN.
           R. BROWNING
 Job cpu time:       0 days  6 hours  9 minutes 23.5 seconds.
 Elapsed time:       0 days  0 hours 11 minutes 55.6 seconds.
 File lengths (MBytes):  RWF=    298 Int=      0 D2E=      0 Chk=     33 Scr=      1
 Normal termination of Gaussian 16 at Tue Jan 23 21:19:58 2018.
