 Entering Gaussian System, Link 0=g16
 Input=str45.-20.-2.0.com
 Output=str45.-20.-2.0.log
 Initial command:
 /share/apps/g16/l1.exe "/state/partition1/scr/Gau-2765.inp" -scrdir="/state/partition1/scr/"
 Entering Link 1 = /share/apps/g16/l1.exe PID=      2766.
  
 Copyright (c) 1988,1990,1992,1993,1995,1998,2003,2009,2016,
            Gaussian, Inc.  All Rights Reserved.
  
 This is part of the Gaussian(R) 16 program.  It is based on
 the Gaussian(R) 09 system (copyright 2009, Gaussian, Inc.),
 the Gaussian(R) 03 system (copyright 2003, Gaussian, Inc.),
 the Gaussian(R) 98 system (copyright 1998, Gaussian, Inc.),
 the Gaussian(R) 94 system (copyright 1995, Gaussian, Inc.),
 the Gaussian 92(TM) system (copyright 1992, Gaussian, Inc.),
 the Gaussian 90(TM) system (copyright 1990, Gaussian, Inc.),
 the Gaussian 88(TM) system (copyright 1988, Gaussian, Inc.),
 the Gaussian 86(TM) system (copyright 1986, Carnegie Mellon
 University), and the Gaussian 82(TM) system (copyright 1983,
 Carnegie Mellon University). Gaussian is a federally registered
 trademark of Gaussian, Inc.
  
 This software contains proprietary and confidential information,
 including trade secrets, belonging to Gaussian, Inc.
  
 This software is provided under written license and may be
 used, copied, transmitted, or stored only in accord with that
 written license.
  
 The following legend is applicable only to US Government
 contracts under FAR:
  
                    RESTRICTED RIGHTS LEGEND
  
 Use, reproduction and disclosure by the US Government is
 subject to restrictions as set forth in subparagraphs (a)
 and (c) of the Commercial Computer Software - Restricted
 Rights clause in FAR 52.227-19.
  
 Gaussian, Inc.
 340 Quinnipiac St., Bldg. 40, Wallingford CT 06492
  
  
 ---------------------------------------------------------------
 Warning -- This program may not be used in any manner that
 competes with the business of Gaussian, Inc. or will provide
 assistance to any competitor of Gaussian, Inc.  The licensee
 of this program is prohibited from giving any competitor of
 Gaussian, Inc. access to this program.  By using this program,
 the user acknowledges that Gaussian, Inc. is engaged in the
 business of creating and licensing software in the field of
 computational chemistry and represents and warrants to the
 licensee that it is not a competitor of Gaussian, Inc. and that
 it will not use this program in any manner prohibited above.
 ---------------------------------------------------------------
  

 Cite this work as:
 Gaussian 16, Revision A.03,
 M. J. Frisch, G. W. Trucks, H. B. Schlegel, G. E. Scuseria, 
 M. A. Robb, J. R. Cheeseman, G. Scalmani, V. Barone, 
 G. A. Petersson, H. Nakatsuji, X. Li, M. Caricato, A. V. Marenich, 
 J. Bloino, B. G. Janesko, R. Gomperts, B. Mennucci, H. P. Hratchian, 
 J. V. Ortiz, A. F. Izmaylov, J. L. Sonnenberg, D. Williams-Young, 
 F. Ding, F. Lipparini, F. Egidi, J. Goings, B. Peng, A. Petrone, 
 T. Henderson, D. Ranasinghe, V. G. Zakrzewski, J. Gao, N. Rega, 
 G. Zheng, W. Liang, M. Hada, M. Ehara, K. Toyota, R. Fukuda, 
 J. Hasegawa, M. Ishida, T. Nakajima, Y. Honda, O. Kitao, H. Nakai, 
 T. Vreven, K. Throssell, J. A. Montgomery, Jr., J. E. Peralta, 
 F. Ogliaro, M. J. Bearpark, J. J. Heyd, E. N. Brothers, K. N. Kudin, 
 V. N. Staroverov, T. A. Keith, R. Kobayashi, J. Normand, 
 K. Raghavachari, A. P. Rendell, J. C. Burant, S. S. Iyengar, 
 J. Tomasi, M. Cossi, J. M. Millam, M. Klene, C. Adamo, R. Cammi, 
 J. W. Ochterski, R. L. Martin, K. Morokuma, O. Farkas, 
 J. B. Foresman, and D. J. Fox, Gaussian, Inc., Wallingford CT, 2016.
 
 ******************************************
 Gaussian 16:  EM64L-G16RevA.03 25-Dec-2016
                24-Jan-2018 
 ******************************************
 %nprocshared=32
 Will use up to   32 processors via shared memory.
 %mem=32GB
 %chk=allatoms_t.chk
 ---------------------------------------
 #p wb97xd/cc-pvdz sp scf=(maxcycles=20)
 ---------------------------------------
 1/38=1,172=1/1;
 2/12=2,17=6,18=5,40=1/2;
 3/5=16,11=2,25=1,30=1,74=-58/1,2,3;
 4//1;
 5/5=2,7=20,38=5/2;
 6/7=2,8=2,9=2,10=2,28=1/1;
 99/5=1,9=1/99;
 Leave Link    1 at Wed Jan 24 02:09:40 2018, MaxMem=  4294967296 cpu:               2.7 elap:               0.1
 (Enter /share/apps/g16/l101.exe)
 ------------------
 Base pair stacking
 ------------------
 Symbolic Z-matrix:
 Charge =  0 Multiplicity = 1
 N                     5.98151   4.84539  -8.51972 
 C                     7.08908   5.80697  -8.683 
 C                     4.06409   3.91225  -7.98117 
 N                     4.79413   2.94066  -8.65034 
 C                     5.92009   3.54173  -8.94802 
 H                     6.7481    3.07702  -9.48409 
 N                     2.3516    5.03891  -6.81456 
 C                     3.16109   6.10298  -6.80752 
 H                     2.7603    6.98891  -6.31684 
 N                     4.38558   6.23638  -7.31323 
 C                     4.78298   5.09163  -7.89292 
 C                     2.78051   3.90235  -7.40561 
 N                     1.9739    2.8391   -7.41366 
 H                     2.25013   1.97696  -7.83983 
 H                     1.06651   2.86805  -6.9942 
 H                     7.27153   5.94518  -9.65654 
 H                     6.83836   6.67949  -8.2647 
 H                     7.91106   5.45036  -8.23895 
 N                     2.57237   6.13796  -3.52582 
 C                     1.44751   5.38964  -3.27528 
 C                     2.64954   7.61123  -3.46087 
 N                    -1.91061   5.20462  -2.40894 
 H                    -2.5985    4.49269  -2.27042 
 H                    -2.20489   6.15162  -2.27738 
 N                     0.23352   5.87063  -2.93044 
 C                    -0.64992   4.9039   -2.75556 
 N                    -0.36807   3.56774  -2.90636 
 H                    -1.10605   2.89795  -2.75232 
 C                     0.87389   3.05016  -3.26062 
 O                     1.02268   1.8268   -3.37014 
 C                     1.8333    4.07671  -3.45188 
 N                     3.17339   4.00227  -3.80616 
 C                     3.56916   5.24589  -3.83768 
 H                     4.58122   5.56942  -4.08331 
 H                     2.91515   7.97245  -4.35405 
 H                     1.75603   7.97878  -3.20628 
 H                     3.32689   7.88138  -2.77748 
 H                    -5.35635   0.1212   -2.47422 
 H                    -4.78108  -0.21698  -0.84347 
 H                    -4.42195   1.33538  -1.60014 
 H                    -1.98237  -3.1819   -3.3975 
 C                    -2.05422  -2.12218  -3.15239 
 O                     0.1637   -1.62599  -3.8319 
 C                    -0.9236   -1.27375  -3.37529 
 H                    -0.34425   0.67881  -3.17476 
 N                    -1.12071   0.04847  -3.03157 
 O                    -2.34101   1.79222  -2.23948 
 C                    -2.26185   0.60751  -2.51309 
 H                    -4.06878  -2.20857  -2.45965 
 C                    -3.18108  -1.60616  -2.64788 
 C                    -4.54844   0.27728  -1.77494 
 N                    -3.30806  -0.27453  -2.32693 
 H                    -4.77867   5.9388   -3.49316 
 H                    -3.21017   5.96723  -3.04471 
 H                    -4.29307   5.1131   -2.17186 
 H                    -1.00243   0.6981   -7.14564 
 H                    -2.62883   0.50211  -6.66972 
 N                    -1.79025   1.04709  -6.63802 
 C                    -1.72648   2.18837  -5.94912 
 C                    -2.58578   3.9149   -4.55539 
 N                    -1.44641   4.62599  -4.53065 
 H                     0.45634   4.53562  -5.28695 
 C                    -0.50429   4.02343  -5.2533 
 N                    -0.5662    2.88033  -5.94401 
 H                    -5.66154   3.1811   -3.88204 
 C                    -4.6351    3.19712  -4.2496 
 N                    -4.10446   2.27795  -5.01851 
 C                    -2.80524   2.72086  -5.21995 
 C                    -4.03446   5.4039   -3.09312 
 N                    -3.77233   4.21713  -3.93029 
 
 ITRead=  0  0  0  0  0  0  0  0  0  0  0  0  0  0  0  0  0  0  0  0
 ITRead=  0  0  0  0  0  0  0  0  0  0  0  0  0  0  0  0  0  0  0  0
 ITRead=  0  0  0  0  0  0  0  0  0  0  0  0  0  0  0  0  0  0  0  0
 ITRead=  0  0  0  0  0  0  0  0  0  0
 MicOpt= -1 -1 -1 -1 -1 -1 -1 -1 -1 -1 -1 -1 -1 -1 -1 -1 -1 -1 -1 -1
 MicOpt= -1 -1 -1 -1 -1 -1 -1 -1 -1 -1 -1 -1 -1 -1 -1 -1 -1 -1 -1 -1
 MicOpt= -1 -1 -1 -1 -1 -1 -1 -1 -1 -1 -1 -1 -1 -1 -1 -1 -1 -1 -1 -1
 MicOpt= -1 -1 -1 -1 -1 -1 -1 -1 -1 -1
 NAtoms=     70 NQM=       70 NQMF=       0 NMMI=      0 NMMIF=      0
                NMic=       0 NMicF=      0.
                    Isotopes and Nuclear Properties:
 (Nuclear quadrupole moments (NQMom) in fm**2, nuclear magnetic moments (NMagM)
  in nuclear magnetons)

  Atom         1           2           3           4           5           6           7           8           9          10
 IAtWgt=          14          12          12          14          12           1          14          12           1          14
 AtmWgt=  14.0030740  12.0000000  12.0000000  14.0030740  12.0000000   1.0078250  14.0030740  12.0000000   1.0078250  14.0030740
 NucSpn=           2           0           0           2           0           1           2           0           1           2
 AtZEff=  -0.0000000  -0.0000000  -0.0000000  -0.0000000  -0.0000000  -0.0000000  -0.0000000  -0.0000000  -0.0000000  -0.0000000
 NQMom=    2.0440000   0.0000000   0.0000000   2.0440000   0.0000000   0.0000000   2.0440000   0.0000000   0.0000000   2.0440000
 NMagM=    0.4037610   0.0000000   0.0000000   0.4037610   0.0000000   2.7928460   0.4037610   0.0000000   2.7928460   0.4037610
 AtZNuc=   7.0000000   6.0000000   6.0000000   7.0000000   6.0000000   1.0000000   7.0000000   6.0000000   1.0000000   7.0000000

  Atom        11          12          13          14          15          16          17          18          19          20
 IAtWgt=          12          12          14           1           1           1           1           1          14          12
 AtmWgt=  12.0000000  12.0000000  14.0030740   1.0078250   1.0078250   1.0078250   1.0078250   1.0078250  14.0030740  12.0000000
 NucSpn=           0           0           2           1           1           1           1           1           2           0
 AtZEff=  -0.0000000  -0.0000000  -0.0000000  -0.0000000  -0.0000000  -0.0000000  -0.0000000  -0.0000000  -0.0000000  -0.0000000
 NQMom=    0.0000000   0.0000000   2.0440000   0.0000000   0.0000000   0.0000000   0.0000000   0.0000000   2.0440000   0.0000000
 NMagM=    0.0000000   0.0000000   0.4037610   2.7928460   2.7928460   2.7928460   2.7928460   2.7928460   0.4037610   0.0000000
 AtZNuc=   6.0000000   6.0000000   7.0000000   1.0000000   1.0000000   1.0000000   1.0000000   1.0000000   7.0000000   6.0000000

  Atom        21          22          23          24          25          26          27          28          29          30
 IAtWgt=          12          14           1           1          14          12          14           1          12          16
 AtmWgt=  12.0000000  14.0030740   1.0078250   1.0078250  14.0030740  12.0000000  14.0030740   1.0078250  12.0000000  15.9949146
 NucSpn=           0           2           1           1           2           0           2           1           0           0
 AtZEff=  -0.0000000  -0.0000000  -0.0000000  -0.0000000  -0.0000000  -0.0000000  -0.0000000  -0.0000000  -0.0000000  -0.0000000
 NQMom=    0.0000000   2.0440000   0.0000000   0.0000000   2.0440000   0.0000000   2.0440000   0.0000000   0.0000000   0.0000000
 NMagM=    0.0000000   0.4037610   2.7928460   2.7928460   0.4037610   0.0000000   0.4037610   2.7928460   0.0000000   0.0000000
 AtZNuc=   6.0000000   7.0000000   1.0000000   1.0000000   7.0000000   6.0000000   7.0000000   1.0000000   6.0000000   8.0000000

  Atom        31          32          33          34          35          36          37          38          39          40
 IAtWgt=          12          14          12           1           1           1           1           1           1           1
 AtmWgt=  12.0000000  14.0030740  12.0000000   1.0078250   1.0078250   1.0078250   1.0078250   1.0078250   1.0078250   1.0078250
 NucSpn=           0           2           0           1           1           1           1           1           1           1
 AtZEff=  -0.0000000  -0.0000000  -0.0000000  -0.0000000  -0.0000000  -0.0000000  -0.0000000  -0.0000000  -0.0000000  -0.0000000
 NQMom=    0.0000000   2.0440000   0.0000000   0.0000000   0.0000000   0.0000000   0.0000000   0.0000000   0.0000000   0.0000000
 NMagM=    0.0000000   0.4037610   0.0000000   2.7928460   2.7928460   2.7928460   2.7928460   2.7928460   2.7928460   2.7928460
 AtZNuc=   6.0000000   7.0000000   6.0000000   1.0000000   1.0000000   1.0000000   1.0000000   1.0000000   1.0000000   1.0000000

  Atom        41          42          43          44          45          46          47          48          49          50
 IAtWgt=           1          12          16          12           1          14          16          12           1          12
 AtmWgt=   1.0078250  12.0000000  15.9949146  12.0000000   1.0078250  14.0030740  15.9949146  12.0000000   1.0078250  12.0000000
 NucSpn=           1           0           0           0           1           2           0           0           1           0
 AtZEff=  -0.0000000  -0.0000000  -0.0000000  -0.0000000  -0.0000000  -0.0000000  -0.0000000  -0.0000000  -0.0000000  -0.0000000
 NQMom=    0.0000000   0.0000000   0.0000000   0.0000000   0.0000000   2.0440000   0.0000000   0.0000000   0.0000000   0.0000000
 NMagM=    2.7928460   0.0000000   0.0000000   0.0000000   2.7928460   0.4037610   0.0000000   0.0000000   2.7928460   0.0000000
 AtZNuc=   1.0000000   6.0000000   8.0000000   6.0000000   1.0000000   7.0000000   8.0000000   6.0000000   1.0000000   6.0000000

  Atom        51          52          53          54          55          56          57          58          59          60
 IAtWgt=          12          14           1           1           1           1           1          14          12          12
 AtmWgt=  12.0000000  14.0030740   1.0078250   1.0078250   1.0078250   1.0078250   1.0078250  14.0030740  12.0000000  12.0000000
 NucSpn=           0           2           1           1           1           1           1           2           0           0
 AtZEff=  -0.0000000  -0.0000000  -0.0000000  -0.0000000  -0.0000000  -0.0000000  -0.0000000  -0.0000000  -0.0000000  -0.0000000
 NQMom=    0.0000000   2.0440000   0.0000000   0.0000000   0.0000000   0.0000000   0.0000000   2.0440000   0.0000000   0.0000000
 NMagM=    0.0000000   0.4037610   2.7928460   2.7928460   2.7928460   2.7928460   2.7928460   0.4037610   0.0000000   0.0000000
 AtZNuc=   6.0000000   7.0000000   1.0000000   1.0000000   1.0000000   1.0000000   1.0000000   7.0000000   6.0000000   6.0000000

  Atom        61          62          63          64          65          66          67          68          69          70
 IAtWgt=          14           1          12          14           1          12          14          12          12          14
 AtmWgt=  14.0030740   1.0078250  12.0000000  14.0030740   1.0078250  12.0000000  14.0030740  12.0000000  12.0000000  14.0030740
 NucSpn=           2           1           0           2           1           0           2           0           0           2
 AtZEff=  -0.0000000  -0.0000000  -0.0000000  -0.0000000  -0.0000000  -0.0000000  -0.0000000  -0.0000000  -0.0000000  -0.0000000
 NQMom=    2.0440000   0.0000000   0.0000000   2.0440000   0.0000000   0.0000000   2.0440000   0.0000000   0.0000000   2.0440000
 NMagM=    0.4037610   2.7928460   0.0000000   0.4037610   2.7928460   0.0000000   0.4037610   0.0000000   0.0000000   0.4037610
 AtZNuc=   7.0000000   1.0000000   6.0000000   7.0000000   1.0000000   6.0000000   7.0000000   6.0000000   6.0000000   7.0000000
 Leave Link  101 at Wed Jan 24 02:09:41 2018, MaxMem=  4294967296 cpu:               7.7 elap:               0.3
 (Enter /share/apps/g16/l202.exe)
 Stoichiometry    C23H27N17O3
 Framework group  C1[X(C23H27N17O3)]
 Deg. of freedom   204
 Full point group                 C1      NOp   1
 Largest Abelian subgroup         C1      NOp   1
 Largest concise Abelian subgroup C1      NOp   1
                         Standard orientation:                         
 ---------------------------------------------------------------------
 Center     Atomic      Atomic             Coordinates (Angstroms)
 Number     Number       Type             X           Y           Z
 ---------------------------------------------------------------------
      1          7           0       -6.858872   -1.464926    0.334047
      2          6           0       -8.215054   -0.950786    0.061215
      3          6           0       -4.702798   -1.606638    0.744593
      4          7           0       -5.175922   -2.910068    0.700342
      5          6           0       -6.455947   -2.772526    0.454778
      6          1           0       -7.159596   -3.598956    0.350773
      7          7           0       -3.290899    0.271941    0.945712
      8          6           0       -4.376784    1.017299    0.715790
      9          1           0       -4.209441    2.093514    0.710313
     10          7           0       -5.632455    0.634646    0.492675
     11          6           0       -5.728583   -0.704906    0.520603
     12          6           0       -3.420591   -1.072596    0.967506
     13          7           0       -2.337792   -1.818335    1.196858
     14          1           0       -2.387195   -2.817406    1.221876
     15          1           0       -1.440790   -1.404031    1.351395
     16          1           0       -8.837688   -1.248328    0.785071
     17          1           0       -8.193800    0.048091    0.030901
     18          1           0       -8.536501   -1.302491   -0.817976
     19          7           0       -2.505773    2.458663   -1.637751
     20          6           0       -1.186156    2.171890   -1.383911
     21          6           0       -3.147773    3.773171   -1.436249
     22          7           0        1.958735    3.181620   -0.310667
     23          1           0        2.864352    2.774671   -0.194584
     24          1           0        1.860766    4.147222   -0.068322
     25          7           0       -0.261732    3.035822   -0.911576
     26          6           0        0.921662    2.465461   -0.770572
     27          7           0        1.181932    1.149841   -1.068747
     28          1           0        2.117047    0.798842   -0.929746
     29          6           0        0.246102    0.242776   -1.555891
     30          8           0        0.584399   -0.923436   -1.793056
     31          6           0       -1.030013    0.840958   -1.712613
     32          7           0       -2.227504    0.302997   -2.163735
     33          6           0       -3.071999    1.296601   -2.102117
     34          1           0       -4.123648    1.236126   -2.384341
     35          1           0       -3.894597    3.683854   -0.778164
     36          1           0       -2.472636    4.421361   -1.086523
     37          1           0       -3.508746    4.106584   -2.306501
     38          1           0        6.794437   -0.496902    0.585443
     39          1           0        7.174332   -0.313791   -1.125345
     40          1           0        5.919628    0.684206   -0.389773
     41          1           0        5.051850   -4.631311   -1.151423
     42          6           0        4.777704   -3.577557   -1.099515
     43          8           0        2.500062   -3.953501   -1.645518
     44          6           0        3.424048   -3.192653   -1.358906
     45          1           0        2.239520   -1.525896   -1.443530
     46          7           0        3.184570   -1.836391   -1.266908
     47          8           0        3.785473    0.323055   -0.902338
     48          6           0        4.093064   -0.854536   -0.960073
     49          1           0        6.728682   -2.883372   -0.591974
     50          6           0        5.686476   -2.642872   -0.797657
     51          6           0        6.382582   -0.291397   -0.391396
     52          7           0        5.377017   -1.304569   -0.723138
     53          1           0        3.491121    4.134630    2.274655
     54          1           0        2.413434    3.939791    1.065218
     55          1           0        4.010964    3.787998    0.766998
     56          1           0        1.050276   -2.872105    2.158536
     57          1           0        2.641563   -2.455902    2.610940
     58          7           0        1.757174   -2.169488    2.240740
     59          6           0        1.531574   -0.906445    1.873321
     60          6           0        2.108838    1.378857    1.547826
     61          7           0        0.911456    1.734859    1.053899
     62          1           0       -0.904188    0.887175    0.623223
     63          6           0        0.092773    0.685595    1.012730
     64          7           0        0.316852   -0.580227    1.380254
     65          1           0        5.170474    1.756101    2.515420
     66          6           0        4.181697    1.371915    2.263113
     67          7           0        3.804055    0.126591    2.418770
     68          6           0        2.491663    0.117286    1.969038
     69          6           0        3.286732    3.627068    1.437634
     70          7           0        3.205672    2.184964    1.740545
 ---------------------------------------------------------------------
 Rotational constants (GHZ):           0.1460516           0.0529563           0.0465703
 Leave Link  202 at Wed Jan 24 02:09:41 2018, MaxMem=  4294967296 cpu:               0.3 elap:               0.0
 (Enter /share/apps/g16/l301.exe)
 Standard basis: CC-pVDZ (5D, 7F)
 Ernie: Thresh=  0.10000D-02 Tol=  0.10000D-05 Strict=F.
 Ernie:  86 primitive shells out of 1081 were deleted.
 There are   780 symmetry adapted cartesian basis functions of A   symmetry.
 There are   737 symmetry adapted basis functions of A   symmetry.
   737 basis functions,  1608 primitive gaussians,   780 cartesian basis functions
   154 alpha electrons      154 beta electrons
       nuclear repulsion energy      5532.4080983123 Hartrees.
 IExCor= 4639 DFT=T Ex+Corr=wB97XD ExCW=0 ScaHFX=  1.000000
 ScaDFX=  1.000000  1.000000  1.000000  1.000000 ScalE2=  1.000000  1.000000
 IRadAn=      5 IRanWt=     -1 IRanGd=            0 ICorTp=0 IEmpDi=121
 HFx  wShort=  0.000000 wLong=  0.200000 cFull=  0.222036 cShort=  0.000000 cLong=  0.777964
 DFx  wShort=  0.000000 wLong=  0.200000 cFull=  0.000000 cShort=  0.000000 cLong=  1.000000
 NAtoms=   70 NActive=   70 NUniq=   70 SFac= 1.00D+00 NAtFMM=   60 NAOKFM=T Big=T
 Integral buffers will be    131072 words long.
 Raffenetti 2 integral format.
 Two-electron integral symmetry is turned on.
 R6Disp:  Grimme-D2 Dispersion energy=       -0.0716378583 Hartrees.
 Nuclear repulsion after empirical dispersion term =     5532.3364604540 Hartrees.
 Leave Link  301 at Wed Jan 24 02:09:41 2018, MaxMem=  4294967296 cpu:               2.2 elap:               0.1
 (Enter /share/apps/g16/l302.exe)
 NPDir=0 NMtPBC=     1 NCelOv=     1 NCel=       1 NClECP=     1 NCelD=      1
         NCelK=      1 NCelE2=     1 NClLst=     1 CellRange=     0.0.
 One-electron integrals computed using PRISM.
 One-electron integral symmetry used in STVInt
 NBasis=   737 RedAO= T EigKep=  6.43D-04  NBF=   737
 NBsUse=   737 1.00D-06 EigRej= -1.00D+00 NBFU=   737
 Precomputing XC quadrature grid using
 IXCGrd= 4 IRadAn=           5 IRanWt=          -1 IRanGd=           0 AccXCQ= 0.00D+00.
 Generated NRdTot=       0 NPtTot=           0 NUsed=           0 NTot=          32
 NSgBfM=   763   763   763   763   763 MxSgAt=    70 MxSgA2=    70.
 Leave Link  302 at Wed Jan 24 02:09:45 2018, MaxMem=  4294967296 cpu:             137.8 elap:               4.3
 (Enter /share/apps/g16/l303.exe)
 DipDrv:  MaxL=1.
 Leave Link  303 at Wed Jan 24 02:09:46 2018, MaxMem=  4294967296 cpu:              12.3 elap:               0.4
 (Enter /share/apps/g16/l401.exe)
 ExpMin= 1.22D-01 ExpMax= 1.17D+04 ExpMxC= 4.01D+02 IAcc=3 IRadAn=         5 AccDes= 0.00D+00
 Harris functional with IExCor= 4639 and IRadAn=       5 diagonalized for initial guess.
 HarFok:  IExCor= 4639 AccDes= 0.00D+00 IRadAn=         5 IDoV= 1 UseB2=F ITyADJ=14
 ICtDFT=  3500011 ScaDFX=  1.000000  1.000000  1.000000  1.000000
 FoFCou: FMM=F IPFlag=           0 FMFlag=      100000 FMFlg1=        2001
         NFxFlg=           0 DoJE=T BraDBF=F KetDBF=T FulRan=T
         wScrn=  0.000000 ICntrl=       500 IOpCl=  0 I1Cent=   200000004 NGrid=           0
         NMat0=    1 NMatS0=      1 NMatT0=    0 NMatD0=    1 NMtDS0=    0 NMtDT0=    0
 Petite list used in FoFCou.
 Harris En= -1963.66607786676    
 JPrj=0 DoOrth=F DoCkMO=F.
 Leave Link  401 at Wed Jan 24 02:09:59 2018, MaxMem=  4294967296 cpu:             400.9 elap:              12.6
 (Enter /share/apps/g16/l502.exe)
 Integral symmetry usage will be decided dynamically.
 Closed shell SCF:
 Using DIIS extrapolation, IDIIS=  1040.
 NGot=  4294967296 LenX=  4293717438 LenY=  4293108258
 Requested convergence on RMS density matrix=1.00D-08 within  20 cycles.
 Requested convergence on MAX density matrix=1.00D-06.
 Requested convergence on             energy=1.00D-06.
 No special actions if energy rises.
 Fock matrices will be formed incrementally for  20 cycles.
 Integral accuracy reduced to 1.0D-05 until final iterations.

 Cycle   1  Pass 0  IDiag  1:
 FoFJK:  IHMeth= 1 ICntrl=       0 DoSepK=T KAlg= 0 I1Cent=           0 FoldK=F
 IRaf=         1 NMat=       1 IRICut=       1 DoRegI=T DoRafI=F ISym2E= 0 IDoP0=0 IntGTp=1.
 FoFCou: FMM=T IPFlag=           0 FMFlag=      100000 FMFlg1=        2001
         NFxFlg=           0 DoJE=T BraDBF=F KetDBF=F FulRan=T
         wScrn=  0.000000 ICntrl=       500 IOpCl=  0 I1Cent=           0 NGrid=           0
         NMat0=    1 NMatS0=      1 NMatT0=    0 NMatD0=    1 NMtDS0=    0 NMtDT0=    0
 Symmetry not used in FoFCou.
 FMM levels:  10  Number of levels for PrismC:   9
 E= -2048.12786783784    
 DIIS: error= 2.49D-02 at cycle   1 NSaved=   1.
 NSaved= 1 IEnMin= 1 EnMin= -2048.12786783784     IErMin= 1 ErrMin= 2.49D-02
 ErrMax= 2.49D-02  0.00D+00 EMaxC= 1.00D-01 BMatC= 8.38D-01 BMatP= 8.38D-01
 IDIUse=3 WtCom= 7.51D-01 WtEn= 2.49D-01
 Coeff-Com:  0.100D+01
 Coeff-En:   0.100D+01
 Coeff:      0.100D+01
 Gap=     0.296 Goal=   None    Shift=    0.000
 GapD=    0.296 DampG=1.000 DampE=0.500 DampFc=0.5000 IDamp=-1.
 Damping current iteration by 5.00D-01
 RMSDP=1.63D-03 MaxDP=1.29D-01              OVMax= 1.92D-01

 Cycle   2  Pass 0  IDiag  1:
 RMSU=  8.15D-04    CP:  9.97D-01
 E= -2048.32801592034     Delta-E=       -0.200148082501 Rises=F Damp=T
 DIIS: error= 1.25D-02 at cycle   2 NSaved=   2.
 NSaved= 2 IEnMin= 2 EnMin= -2048.32801592034     IErMin= 2 ErrMin= 1.25D-02
 ErrMax= 1.25D-02  0.00D+00 EMaxC= 1.00D-01 BMatC= 1.45D-01 BMatP= 8.38D-01
 IDIUse=3 WtCom= 8.75D-01 WtEn= 1.25D-01
 Coeff-Com: -0.189D+00 0.119D+01
 Coeff-En:   0.000D+00 0.100D+01
 Coeff:     -0.166D+00 0.117D+01
 Gap=     0.352 Goal=   None    Shift=    0.000
 RMSDP=6.05D-04 MaxDP=3.28D-02 DE=-2.00D-01 OVMax= 1.45D-01

 Cycle   3  Pass 0  IDiag  1:
 RMSU=  5.95D-04    CP:  9.93D-01  1.12D+00
 E= -2048.51259579719     Delta-E=       -0.184579876848 Rises=F Damp=F
 DIIS: error= 6.52D-03 at cycle   3 NSaved=   3.
 NSaved= 3 IEnMin= 3 EnMin= -2048.51259579719     IErMin= 3 ErrMin= 6.52D-03
 ErrMax= 6.52D-03  0.00D+00 EMaxC= 1.00D-01 BMatC= 6.27D-02 BMatP= 1.45D-01
 IDIUse=3 WtCom= 9.35D-01 WtEn= 6.52D-02
 Coeff-Com: -0.228D+00 0.542D+00 0.686D+00
 Coeff-En:   0.000D+00 0.000D+00 0.100D+01
 Coeff:     -0.213D+00 0.507D+00 0.706D+00
 Gap=     0.277 Goal=   None    Shift=    0.000
 RMSDP=3.68D-04 MaxDP=3.31D-02 DE=-1.85D-01 OVMax= 7.11D-02

 Cycle   4  Pass 0  IDiag  1:
 RMSU=  2.11D-04    CP:  9.94D-01  1.41D+00  6.79D-01
 E= -2048.56008115971     Delta-E=       -0.047485362523 Rises=F Damp=F
 DIIS: error= 2.54D-03 at cycle   4 NSaved=   4.
 NSaved= 4 IEnMin= 4 EnMin= -2048.56008115971     IErMin= 4 ErrMin= 2.54D-03
 ErrMax= 2.54D-03  0.00D+00 EMaxC= 1.00D-01 BMatC= 9.22D-03 BMatP= 6.27D-02
 IDIUse=3 WtCom= 9.75D-01 WtEn= 2.54D-02
 Coeff-Com: -0.974D-01 0.189D+00 0.382D+00 0.527D+00
 Coeff-En:   0.000D+00 0.000D+00 0.650D-01 0.935D+00
 Coeff:     -0.950D-01 0.184D+00 0.374D+00 0.537D+00
 Gap=     0.278 Goal=   None    Shift=    0.000
 RMSDP=1.33D-04 MaxDP=1.16D-02 DE=-4.75D-02 OVMax= 1.50D-02

 Cycle   5  Pass 0  IDiag  1:
 RMSU=  6.40D-05    CP:  9.93D-01  1.38D+00  8.11D-01  6.08D-01
 E= -2048.56774954638     Delta-E=       -0.007668386669 Rises=F Damp=F
 DIIS: error= 4.55D-04 at cycle   5 NSaved=   5.
 NSaved= 5 IEnMin= 5 EnMin= -2048.56774954638     IErMin= 5 ErrMin= 4.55D-04
 ErrMax= 4.55D-04  0.00D+00 EMaxC= 1.00D-01 BMatC= 3.09D-04 BMatP= 9.22D-03
 IDIUse=3 WtCom= 9.95D-01 WtEn= 4.55D-03
 Coeff-Com: -0.257D-01 0.442D-01 0.123D+00 0.239D+00 0.620D+00
 Coeff-En:   0.000D+00 0.000D+00 0.000D+00 0.000D+00 0.100D+01
 Coeff:     -0.256D-01 0.440D-01 0.123D+00 0.237D+00 0.621D+00
 Gap=     0.279 Goal=   None    Shift=    0.000
 RMSDP=2.85D-05 MaxDP=1.97D-03 DE=-7.67D-03 OVMax= 3.30D-03

 Failed to achieve initial convergence to 1.0D-08 in  6 cycles.
 Switch to full accuracy anyway.
 Cycle   6  Pass 1  IDiag  1:
 E= -2048.56798379673     Delta-E=       -0.000234250350 Rises=F Damp=F
 DIIS: error= 2.39D-04 at cycle   1 NSaved=   1.
 NSaved= 1 IEnMin= 1 EnMin= -2048.56798379673     IErMin= 1 ErrMin= 2.39D-04
 ErrMax= 2.39D-04  0.00D+00 EMaxC= 1.00D-01 BMatC= 8.24D-05 BMatP= 8.24D-05
 IDIUse=3 WtCom= 9.98D-01 WtEn= 2.39D-03
 Coeff-Com:  0.100D+01
 Coeff-En:   0.100D+01
 Coeff:      0.100D+01
 Gap=     0.278 Goal=   None    Shift=    0.000
 RMSDP=2.85D-05 MaxDP=1.97D-03 DE=-2.34D-04 OVMax= 3.03D-03

 Cycle   7  Pass 1  IDiag  1:
 RMSU=  1.19D-04    CP:  1.00D+00
 E= -2048.56803899300     Delta-E=       -0.000055196269 Rises=F Damp=F
 DIIS: error= 1.68D-04 at cycle   2 NSaved=   2.
 NSaved= 2 IEnMin= 2 EnMin= -2048.56803899300     IErMin= 2 ErrMin= 1.68D-04
 ErrMax= 1.68D-04  0.00D+00 EMaxC= 1.00D-01 BMatC= 5.30D-05 BMatP= 8.24D-05
 IDIUse=3 WtCom= 9.98D-01 WtEn= 1.68D-03
 Coeff-Com:  0.426D+00 0.574D+00
 Coeff-En:   0.561D-01 0.944D+00
 Coeff:      0.426D+00 0.574D+00
 Gap=     0.279 Goal=   None    Shift=    0.000
 RMSDP=1.34D-05 MaxDP=1.18D-03 DE=-5.52D-05 OVMax= 1.85D-03

 Cycle   8  Pass 1  IDiag  1:
 RMSU=  1.32D-05    CP:  1.00D+00  1.02D+00
 E= -2048.56807793077     Delta-E=       -0.000038937774 Rises=F Damp=F
 DIIS: error= 7.70D-05 at cycle   3 NSaved=   3.
 NSaved= 3 IEnMin= 3 EnMin= -2048.56807793077     IErMin= 3 ErrMin= 7.70D-05
 ErrMax= 7.70D-05  0.00D+00 EMaxC= 1.00D-01 BMatC= 1.13D-05 BMatP= 5.30D-05
 IDIUse=1 WtCom= 1.00D+00 WtEn= 0.00D+00
 Coeff-Com: -0.170D-01 0.303D+00 0.714D+00
 Coeff:     -0.170D-01 0.303D+00 0.714D+00
 Gap=     0.279 Goal=   None    Shift=    0.000
 RMSDP=6.25D-06 MaxDP=3.95D-04 DE=-3.89D-05 OVMax= 8.29D-04

 Cycle   9  Pass 1  IDiag  1:
 RMSU=  4.07D-06    CP:  1.00D+00  1.05D+00  7.60D-01
 E= -2048.56808879275     Delta-E=       -0.000010861979 Rises=F Damp=F
 DIIS: error= 3.07D-05 at cycle   4 NSaved=   4.
 NSaved= 4 IEnMin= 4 EnMin= -2048.56808879275     IErMin= 4 ErrMin= 3.07D-05
 ErrMax= 3.07D-05  0.00D+00 EMaxC= 1.00D-01 BMatC= 6.67D-07 BMatP= 1.13D-05
 IDIUse=1 WtCom= 1.00D+00 WtEn= 0.00D+00
 Coeff-Com: -0.321D-01 0.891D-01 0.288D+00 0.655D+00
 Coeff:     -0.321D-01 0.891D-01 0.288D+00 0.655D+00
 Gap=     0.279 Goal=   None    Shift=    0.000
 RMSDP=1.59D-06 MaxDP=1.16D-04 DE=-1.09D-05 OVMax= 4.63D-04

 Cycle  10  Pass 1  IDiag  1:
 RMSU=  1.42D-06    CP:  1.00D+00  1.05D+00  7.98D-01  1.09D+00
 E= -2048.56808980385     Delta-E=       -0.000001011102 Rises=F Damp=F
 DIIS: error= 1.28D-05 at cycle   5 NSaved=   5.
 NSaved= 5 IEnMin= 5 EnMin= -2048.56808980385     IErMin= 5 ErrMin= 1.28D-05
 ErrMax= 1.28D-05  0.00D+00 EMaxC= 1.00D-01 BMatC= 1.23D-07 BMatP= 6.67D-07
 IDIUse=1 WtCom= 1.00D+00 WtEn= 0.00D+00
 Coeff-Com: -0.370D-02-0.521D-01-0.109D+00 0.179D+00 0.985D+00
 Coeff:     -0.370D-02-0.521D-01-0.109D+00 0.179D+00 0.985D+00
 Gap=     0.279 Goal=   None    Shift=    0.000
 RMSDP=1.26D-06 MaxDP=7.66D-05 DE=-1.01D-06 OVMax= 2.83D-04

 Cycle  11  Pass 1  IDiag  1:
 RMSU=  5.28D-07    CP:  1.00D+00  1.06D+00  8.05D-01  1.36D+00  1.19D+00
 E= -2048.56809009707     Delta-E=       -0.000000293216 Rises=F Damp=F
 DIIS: error= 9.22D-06 at cycle   6 NSaved=   6.
 NSaved= 6 IEnMin= 6 EnMin= -2048.56809009707     IErMin= 6 ErrMin= 9.22D-06
 ErrMax= 9.22D-06  0.00D+00 EMaxC= 1.00D-01 BMatC= 3.60D-08 BMatP= 1.23D-07
 IDIUse=1 WtCom= 1.00D+00 WtEn= 0.00D+00
 Coeff-Com:  0.483D-02-0.465D-01-0.118D+00-0.211D-01 0.543D+00 0.639D+00
 Coeff:      0.483D-02-0.465D-01-0.118D+00-0.211D-01 0.543D+00 0.639D+00
 Gap=     0.279 Goal=   None    Shift=    0.000
 RMSDP=4.48D-07 MaxDP=3.34D-05 DE=-2.93D-07 OVMax= 1.25D-04

 Cycle  12  Pass 1  IDiag  1:
 RMSU=  2.13D-07    CP:  1.00D+00  1.06D+00  8.09D-01  1.44D+00  1.34D+00
                    CP:  9.18D-01
 E= -2048.56809014834     Delta-E=       -0.000000051274 Rises=F Damp=F
 DIIS: error= 1.30D-06 at cycle   7 NSaved=   7.
 NSaved= 7 IEnMin= 7 EnMin= -2048.56809014834     IErMin= 7 ErrMin= 1.30D-06
 ErrMax= 1.30D-06  0.00D+00 EMaxC= 1.00D-01 BMatC= 9.82D-10 BMatP= 3.60D-08
 IDIUse=1 WtCom= 1.00D+00 WtEn= 0.00D+00
 Coeff-Com:  0.144D-02-0.106D-01-0.280D-01-0.121D-01 0.104D+00 0.172D+00
 Coeff-Com:  0.773D+00
 Coeff:      0.144D-02-0.106D-01-0.280D-01-0.121D-01 0.104D+00 0.172D+00
 Coeff:      0.773D+00
 Gap=     0.279 Goal=   None    Shift=    0.000
 RMSDP=8.71D-08 MaxDP=7.75D-06 DE=-5.13D-08 OVMax= 2.60D-05

 Cycle  13  Pass 1  IDiag  1:
 RMSU=  6.24D-08    CP:  1.00D+00  1.06D+00  8.09D-01  1.44D+00  1.36D+00
                    CP:  9.96D-01  1.09D+00
 E= -2048.56809015033     Delta-E=       -0.000000001988 Rises=F Damp=F
 DIIS: error= 7.48D-07 at cycle   8 NSaved=   8.
 NSaved= 8 IEnMin= 8 EnMin= -2048.56809015033     IErMin= 8 ErrMin= 7.48D-07
 ErrMax= 7.48D-07  0.00D+00 EMaxC= 1.00D-01 BMatC= 5.19D-10 BMatP= 9.82D-10
 IDIUse=1 WtCom= 1.00D+00 WtEn= 0.00D+00
 Coeff-Com: -0.674D-03 0.829D-02 0.206D-01-0.396D-03-0.110D+00-0.106D+00
 Coeff-Com:  0.426D+00 0.763D+00
 Coeff:     -0.674D-03 0.829D-02 0.206D-01-0.396D-03-0.110D+00-0.106D+00
 Coeff:      0.426D+00 0.763D+00
 Gap=     0.279 Goal=   None    Shift=    0.000
 RMSDP=6.32D-08 MaxDP=4.46D-06 DE=-1.99D-09 OVMax= 1.14D-05

 Cycle  14  Pass 1  IDiag  1:
 RMSU=  3.38D-08    CP:  1.00D+00  1.06D+00  8.09D-01  1.45D+00  1.37D+00
                    CP:  1.04D+00  1.28D+00  1.02D+00
 E= -2048.56809015114     Delta-E=       -0.000000000803 Rises=F Damp=F
 DIIS: error= 3.39D-07 at cycle   9 NSaved=   9.
 NSaved= 9 IEnMin= 9 EnMin= -2048.56809015114     IErMin= 9 ErrMin= 3.39D-07
 ErrMax= 3.39D-07  0.00D+00 EMaxC= 1.00D-01 BMatC= 5.38D-11 BMatP= 5.19D-10
 IDIUse=1 WtCom= 1.00D+00 WtEn= 0.00D+00
 Coeff-Com: -0.504D-03 0.530D-02 0.134D-01 0.200D-02-0.629D-01-0.708D-01
 Coeff-Com:  0.109D+00 0.341D+00 0.664D+00
 Coeff:     -0.504D-03 0.530D-02 0.134D-01 0.200D-02-0.629D-01-0.708D-01
 Coeff:      0.109D+00 0.341D+00 0.664D+00
 Gap=     0.279 Goal=   None    Shift=    0.000
 RMSDP=1.63D-08 MaxDP=9.24D-07 DE=-8.03D-10 OVMax= 3.44D-06

 Cycle  15  Pass 1  IDiag  1:
 RMSU=  1.07D-08    CP:  1.00D+00  1.06D+00  8.09D-01  1.45D+00  1.37D+00
                    CP:  1.05D+00  1.30D+00  1.16D+00  1.12D+00
 E= -2048.56809015159     Delta-E=       -0.000000000459 Rises=F Damp=F
 DIIS: error= 1.32D-07 at cycle  10 NSaved=  10.
 NSaved=10 IEnMin=10 EnMin= -2048.56809015159     IErMin=10 ErrMin= 1.32D-07
 ErrMax= 1.32D-07  0.00D+00 EMaxC= 1.00D-01 BMatC= 6.04D-12 BMatP= 5.38D-11
 IDIUse=1 WtCom= 1.00D+00 WtEn= 0.00D+00
 Coeff-Com: -0.141D-04-0.113D-03-0.202D-03 0.216D-03 0.294D-02-0.723D-03
 Coeff-Com: -0.530D-01-0.536D-01 0.190D+00 0.914D+00
 Coeff:     -0.141D-04-0.113D-03-0.202D-03 0.216D-03 0.294D-02-0.723D-03
 Coeff:     -0.530D-01-0.536D-01 0.190D+00 0.914D+00
 Gap=     0.279 Goal=   None    Shift=    0.000
 RMSDP=9.67D-09 MaxDP=5.34D-07 DE=-4.59D-10 OVMax= 2.03D-06

 SCF Done:  E(RwB97XD) =  -2048.56809015     A.U. after   15 cycles
            NFock= 15  Conv=0.97D-08     -V/T= 2.0048
 KE= 2.038700231526D+03 PE=-1.584550295218D+04 EE= 6.225898170046D+03
 Leave Link  502 at Wed Jan 24 02:21:49 2018, MaxMem=  4294967296 cpu:           22019.0 elap:             710.6
 (Enter /share/apps/g16/l601.exe)
 Copying SCF densities to generalized density rwf, IOpCl= 0 IROHF=0.

 **********************************************************************

            Population analysis using the SCF density.

 **********************************************************************

 Orbital symmetries:
       Occupied  (A) (A) (A) (A) (A) (A) (A) (A) (A) (A) (A) (A)
                 (A) (A) (A) (A) (A) (A) (A) (A) (A) (A) (A) (A)
                 (A) (A) (A) (A) (A) (A) (A) (A) (A) (A) (A) (A)
                 (A) (A) (A) (A) (A) (A) (A) (A) (A) (A) (A) (A)
                 (A) (A) (A) (A) (A) (A) (A) (A) (A) (A) (A) (A)
                 (A) (A) (A) (A) (A) (A) (A) (A) (A) (A) (A) (A)
                 (A) (A) (A) (A) (A) (A) (A) (A) (A) (A) (A) (A)
                 (A) (A) (A) (A) (A) (A) (A) (A) (A) (A) (A) (A)
                 (A) (A) (A) (A) (A) (A) (A) (A) (A) (A) (A) (A)
                 (A) (A) (A) (A) (A) (A) (A) (A) (A) (A) (A) (A)
                 (A) (A) (A) (A) (A) (A) (A) (A) (A) (A) (A) (A)
                 (A) (A) (A) (A) (A) (A) (A) (A) (A) (A) (A) (A)
                 (A) (A) (A) (A) (A) (A) (A) (A) (A) (A)
       Virtual   (A) (A) (A) (A) (A) (A) (A) (A) (A) (A) (A) (A)
                 (A) (A) (A) (A) (A) (A) (A) (A) (A) (A) (A) (A)
                 (A) (A) (A) (A) (A) (A) (A) (A) (A) (A) (A) (A)
                 (A) (A) (A) (A) (A) (A) (A) (A) (A) (A) (A) (A)
                 (A) (A) (A) (A) (A) (A) (A) (A) (A) (A) (A) (A)
                 (A) (A) (A) (A) (A) (A) (A) (A) (A) (A) (A) (A)
                 (A) (A) (A) (A) (A) (A) (A) (A) (A) (A) (A) (A)
                 (A) (A) (A) (A) (A) (A) (A) (A) (A) (A) (A) (A)
                 (A) (A) (A) (A) (A) (A) (A) (A) (A) (A) (A) (A)
                 (A) (A) (A) (A) (A) (A) (A) (A) (A) (A) (A) (A)
                 (A) (A) (A) (A) (A) (A) (A) (A) (A) (A) (A) (A)
                 (A) (A) (A) (A) (A) (A) (A) (A) (A) (A) (A) (A)
                 (A) (A) (A) (A) (A) (A) (A) (A) (A) (A) (A) (A)
                 (A) (A) (A) (A) (A) (A) (A) (A) (A) (A) (A) (A)
                 (A) (A) (A) (A) (A) (A) (A) (A) (A) (A) (A) (A)
                 (A) (A) (A) (A) (A) (A) (A) (A) (A) (A) (A) (A)
                 (A) (A) (A) (A) (A) (A) (A) (A) (A) (A) (A) (A)
                 (A) (A) (A) (A) (A) (A) (A) (A) (A) (A) (A) (A)
                 (A) (A) (A) (A) (A) (A) (A) (A) (A) (A) (A) (A)
                 (A) (A) (A) (A) (A) (A) (A) (A) (A) (A) (A) (A)
                 (A) (A) (A) (A) (A) (A) (A) (A) (A) (A) (A) (A)
                 (A) (A) (A) (A) (A) (A) (A) (A) (A) (A) (A) (A)
                 (A) (A) (A) (A) (A) (A) (A) (A) (A) (A) (A) (A)
                 (A) (A) (A) (A) (A) (A) (A) (A) (A) (A) (A) (A)
                 (A) (A) (A) (A) (A) (A) (A) (A) (A) (A) (A) (A)
                 (A) (A) (A) (A) (A) (A) (A) (A) (A) (A) (A) (A)
                 (A) (A) (A) (A) (A) (A) (A) (A) (A) (A) (A) (A)
                 (A) (A) (A) (A) (A) (A) (A) (A) (A) (A) (A) (A)
                 (A) (A) (A) (A) (A) (A) (A) (A) (A) (A) (A) (A)
                 (A) (A) (A) (A) (A) (A) (A) (A) (A) (A) (A) (A)
                 (A) (A) (A) (A) (A) (A) (A) (A) (A) (A) (A) (A)
                 (A) (A) (A) (A) (A) (A) (A) (A) (A) (A) (A) (A)
                 (A) (A) (A) (A) (A) (A) (A) (A) (A) (A) (A) (A)
                 (A) (A) (A) (A) (A) (A) (A) (A) (A) (A) (A) (A)
                 (A) (A) (A) (A) (A) (A) (A) (A) (A) (A) (A) (A)
                 (A) (A) (A) (A) (A) (A) (A) (A) (A) (A) (A) (A)
                 (A) (A) (A) (A) (A) (A) (A) (A) (A) (A) (A) (A)
                 (A) (A) (A) (A) (A) (A) (A) (A) (A) (A) (A) (A)
                 (A) (A) (A) (A) (A) (A) (A) (A) (A) (A) (A) (A)
                 (A) (A) (A) (A) (A) (A) (A) (A) (A) (A) (A) (A)
                 (A) (A) (A) (A) (A) (A) (A) (A) (A) (A) (A) (A)
                 (A) (A) (A) (A) (A) (A) (A) (A) (A) (A) (A) (A)
                 (A) (A) (A) (A) (A) (A) (A) (A) (A) (A) (A) (A)
                 (A) (A) (A) (A) (A) (A) (A) (A) (A) (A) (A) (A)
                 (A) (A) (A) (A) (A) (A) (A) (A) (A) (A) (A) (A)
                 (A) (A) (A) (A) (A) (A) (A) (A) (A) (A) (A) (A)
                 (A) (A) (A) (A) (A) (A) (A) (A) (A) (A) (A) (A)
                 (A) (A) (A) (A) (A) (A) (A) (A) (A) (A) (A) (A)
                 (A) (A) (A) (A) (A) (A) (A)
 The electronic state is 1-A.
 Alpha  occ. eigenvalues --  -19.25922 -19.21946 -19.20382 -14.52453 -14.52359
 Alpha  occ. eigenvalues --  -14.49377 -14.48487 -14.47918 -14.47723 -14.45531
 Alpha  occ. eigenvalues --  -14.45186 -14.45057 -14.43827 -14.42948 -14.42790
 Alpha  occ. eigenvalues --  -14.42069 -14.41642 -14.41375 -14.40829 -14.40478
 Alpha  occ. eigenvalues --  -10.45538 -10.41477 -10.40078 -10.39434 -10.37901
 Alpha  occ. eigenvalues --  -10.37819 -10.37787 -10.36693 -10.36121 -10.35359
 Alpha  occ. eigenvalues --  -10.34909 -10.34719 -10.34144 -10.34042 -10.33838
 Alpha  occ. eigenvalues --  -10.33105 -10.32894 -10.32275 -10.31422 -10.31095
 Alpha  occ. eigenvalues --  -10.30695 -10.29229 -10.27774  -1.19501  -1.15739
 Alpha  occ. eigenvalues --   -1.13434  -1.12984  -1.11985  -1.10401  -1.09518
 Alpha  occ. eigenvalues --   -1.09337  -1.08697  -1.05675  -1.04226  -1.02678
 Alpha  occ. eigenvalues --   -1.02449  -1.01152  -0.99465  -0.98362  -0.97600
 Alpha  occ. eigenvalues --   -0.96731  -0.96229  -0.93339  -0.91055  -0.87902
 Alpha  occ. eigenvalues --   -0.86657  -0.84572  -0.83773  -0.83697  -0.82907
 Alpha  occ. eigenvalues --   -0.82375  -0.78888  -0.77156  -0.75238  -0.74538
 Alpha  occ. eigenvalues --   -0.73867  -0.73569  -0.73378  -0.71770  -0.70474
 Alpha  occ. eigenvalues --   -0.67964  -0.67242  -0.66977  -0.66530  -0.64830
 Alpha  occ. eigenvalues --   -0.64409  -0.63756  -0.63449  -0.63021  -0.62916
 Alpha  occ. eigenvalues --   -0.61040  -0.60891  -0.60457  -0.59894  -0.59511
 Alpha  occ. eigenvalues --   -0.59358  -0.58945  -0.57293  -0.56927  -0.56916
 Alpha  occ. eigenvalues --   -0.56308  -0.55719  -0.55682  -0.54554  -0.54396
 Alpha  occ. eigenvalues --   -0.53760  -0.53337  -0.53063  -0.52791  -0.52659
 Alpha  occ. eigenvalues --   -0.52399  -0.52290  -0.51635  -0.51358  -0.50781
 Alpha  occ. eigenvalues --   -0.50043  -0.49867  -0.49540  -0.49394  -0.48783
 Alpha  occ. eigenvalues --   -0.48579  -0.48243  -0.48095  -0.47952  -0.47552
 Alpha  occ. eigenvalues --   -0.47249  -0.46055  -0.45612  -0.43986  -0.42721
 Alpha  occ. eigenvalues --   -0.41876  -0.39585  -0.39347  -0.37877  -0.37707
 Alpha  occ. eigenvalues --   -0.37314  -0.36984  -0.36482  -0.35856  -0.35205
 Alpha  occ. eigenvalues --   -0.34222  -0.34070  -0.33385  -0.33108  -0.32490
 Alpha  occ. eigenvalues --   -0.32080  -0.31950  -0.31665  -0.31519  -0.31362
 Alpha  occ. eigenvalues --   -0.30925  -0.28146  -0.26488  -0.24791
 Alpha virt. eigenvalues --    0.03067   0.03468   0.07118   0.07192   0.08343
 Alpha virt. eigenvalues --    0.09071   0.09462   0.10264   0.11553   0.12493
 Alpha virt. eigenvalues --    0.12798   0.13725   0.13920   0.14189   0.15190
 Alpha virt. eigenvalues --    0.15952   0.16202   0.16586   0.16671   0.17809
 Alpha virt. eigenvalues --    0.18913   0.19404   0.19477   0.20311   0.20336
 Alpha virt. eigenvalues --    0.20883   0.21242   0.21485   0.21963   0.22480
 Alpha virt. eigenvalues --    0.22811   0.23342   0.23435   0.23599   0.23720
 Alpha virt. eigenvalues --    0.24028   0.24102   0.24835   0.25532   0.25750
 Alpha virt. eigenvalues --    0.26333   0.26822   0.28142   0.28458   0.29128
 Alpha virt. eigenvalues --    0.29221   0.29574   0.30002   0.30904   0.31192
 Alpha virt. eigenvalues --    0.31667   0.31831   0.32586   0.33302   0.33930
 Alpha virt. eigenvalues --    0.34091   0.34490   0.35250   0.35805   0.36371
 Alpha virt. eigenvalues --    0.37524   0.37766   0.38616   0.39306   0.39512
 Alpha virt. eigenvalues --    0.40410   0.40967   0.41200   0.41497   0.41815
 Alpha virt. eigenvalues --    0.42247   0.42812   0.43243   0.44039   0.44422
 Alpha virt. eigenvalues --    0.44947   0.45303   0.45982   0.46287   0.46827
 Alpha virt. eigenvalues --    0.47498   0.48210   0.48841   0.49214   0.49464
 Alpha virt. eigenvalues --    0.50076   0.50803   0.50894   0.51271   0.51566
 Alpha virt. eigenvalues --    0.52121   0.52196   0.52536   0.53004   0.53802
 Alpha virt. eigenvalues --    0.54058   0.54667   0.55080   0.55536   0.55878
 Alpha virt. eigenvalues --    0.56129   0.57251   0.57517   0.57978   0.58278
 Alpha virt. eigenvalues --    0.58541   0.58927   0.59107   0.59412   0.59685
 Alpha virt. eigenvalues --    0.59985   0.60444   0.61059   0.61129   0.61645
 Alpha virt. eigenvalues --    0.62388   0.62739   0.63202   0.63269   0.63702
 Alpha virt. eigenvalues --    0.64264   0.64649   0.64694   0.64823   0.65660
 Alpha virt. eigenvalues --    0.65858   0.66548   0.66662   0.67021   0.67696
 Alpha virt. eigenvalues --    0.67981   0.68420   0.68681   0.69156   0.69488
 Alpha virt. eigenvalues --    0.69821   0.70313   0.70464   0.71390   0.71587
 Alpha virt. eigenvalues --    0.72126   0.72360   0.73544   0.73846   0.74233
 Alpha virt. eigenvalues --    0.74572   0.74791   0.75031   0.75292   0.75567
 Alpha virt. eigenvalues --    0.75672   0.76212   0.76561   0.76736   0.77079
 Alpha virt. eigenvalues --    0.77327   0.77861   0.78378   0.78682   0.78962
 Alpha virt. eigenvalues --    0.79169   0.79895   0.80091   0.80673   0.81160
 Alpha virt. eigenvalues --    0.81830   0.82064   0.82211   0.82921   0.83106
 Alpha virt. eigenvalues --    0.83776   0.83867   0.84332   0.85024   0.85600
 Alpha virt. eigenvalues --    0.85765   0.86437   0.86633   0.87868   0.87968
 Alpha virt. eigenvalues --    0.88468   0.88856   0.89063   0.89406   0.89956
 Alpha virt. eigenvalues --    0.90534   0.90801   0.91190   0.91736   0.92387
 Alpha virt. eigenvalues --    0.93089   0.93286   0.93583   0.94071   0.94734
 Alpha virt. eigenvalues --    0.94991   0.95273   0.95811   0.96203   0.96448
 Alpha virt. eigenvalues --    0.97150   0.97757   0.98410   0.98698   0.99157
 Alpha virt. eigenvalues --    0.99408   1.00348   1.00788   1.00906   1.01670
 Alpha virt. eigenvalues --    1.02241   1.02414   1.03448   1.04045   1.04465
 Alpha virt. eigenvalues --    1.04793   1.05011   1.05323   1.05583   1.06646
 Alpha virt. eigenvalues --    1.07365   1.07762   1.08176   1.09333   1.09955
 Alpha virt. eigenvalues --    1.10509   1.10931   1.11047   1.12080   1.12250
 Alpha virt. eigenvalues --    1.12694   1.13371   1.13840   1.13993   1.14717
 Alpha virt. eigenvalues --    1.15195   1.15494   1.16092   1.16443   1.16840
 Alpha virt. eigenvalues --    1.17169   1.17912   1.18036   1.18807   1.19056
 Alpha virt. eigenvalues --    1.19388   1.19721   1.20105   1.20662   1.21242
 Alpha virt. eigenvalues --    1.21408   1.21817   1.22219   1.22363   1.22463
 Alpha virt. eigenvalues --    1.22717   1.23546   1.23622   1.24565   1.24919
 Alpha virt. eigenvalues --    1.25693   1.26042   1.26562   1.27111   1.27431
 Alpha virt. eigenvalues --    1.28260   1.28613   1.29319   1.29885   1.30182
 Alpha virt. eigenvalues --    1.30879   1.31332   1.32247   1.32716   1.32970
 Alpha virt. eigenvalues --    1.33678   1.34149   1.34784   1.34924   1.35901
 Alpha virt. eigenvalues --    1.36650   1.37504   1.38192   1.38939   1.39064
 Alpha virt. eigenvalues --    1.39841   1.41261   1.42034   1.42738   1.43846
 Alpha virt. eigenvalues --    1.44363   1.44433   1.45342   1.45902   1.46908
 Alpha virt. eigenvalues --    1.47868   1.48058   1.48553   1.48770   1.48854
 Alpha virt. eigenvalues --    1.49444   1.50631   1.50992   1.51314   1.51856
 Alpha virt. eigenvalues --    1.52894   1.53347   1.55512   1.55656   1.55698
 Alpha virt. eigenvalues --    1.56793   1.57183   1.57744   1.58271   1.58574
 Alpha virt. eigenvalues --    1.59068   1.60057   1.60935   1.61222   1.61355
 Alpha virt. eigenvalues --    1.62907   1.63254   1.63733   1.64501   1.65531
 Alpha virt. eigenvalues --    1.66062   1.66416   1.66593   1.67061   1.67496
 Alpha virt. eigenvalues --    1.67977   1.68532   1.68859   1.69478   1.69861
 Alpha virt. eigenvalues --    1.70099   1.70398   1.70847   1.71355   1.71763
 Alpha virt. eigenvalues --    1.72220   1.72862   1.73305   1.73780   1.74233
 Alpha virt. eigenvalues --    1.74898   1.75154   1.75324   1.75441   1.75617
 Alpha virt. eigenvalues --    1.75995   1.76251   1.76849   1.77794   1.78136
 Alpha virt. eigenvalues --    1.78756   1.79264   1.79486   1.79633   1.79710
 Alpha virt. eigenvalues --    1.79838   1.80595   1.81105   1.81245   1.82007
 Alpha virt. eigenvalues --    1.82052   1.82370   1.82640   1.83680   1.83964
 Alpha virt. eigenvalues --    1.84159   1.84678   1.85155   1.85939   1.86789
 Alpha virt. eigenvalues --    1.87415   1.87741   1.88024   1.88324   1.88751
 Alpha virt. eigenvalues --    1.88908   1.89182   1.89675   1.90244   1.90383
 Alpha virt. eigenvalues --    1.91327   1.92243   1.92585   1.92839   1.93301
 Alpha virt. eigenvalues --    1.93658   1.94562   1.94691   1.95307   1.95795
 Alpha virt. eigenvalues --    1.96641   1.97165   1.98488   1.99210   1.99685
 Alpha virt. eigenvalues --    2.00156   2.00713   2.00788   2.01851   2.02346
 Alpha virt. eigenvalues --    2.02896   2.03692   2.03891   2.05290   2.05547
 Alpha virt. eigenvalues --    2.06178   2.06306   2.06946   2.07867   2.08119
 Alpha virt. eigenvalues --    2.08672   2.09321   2.10380   2.10733   2.11663
 Alpha virt. eigenvalues --    2.12173   2.12595   2.13148   2.13615   2.14387
 Alpha virt. eigenvalues --    2.15359   2.16767   2.18481   2.19415   2.19775
 Alpha virt. eigenvalues --    2.20099   2.20593   2.21070   2.21479   2.21888
 Alpha virt. eigenvalues --    2.22121   2.22675   2.23895   2.24698   2.25036
 Alpha virt. eigenvalues --    2.26051   2.26761   2.27296   2.28805   2.29180
 Alpha virt. eigenvalues --    2.29357   2.30257   2.30350   2.30562   2.30774
 Alpha virt. eigenvalues --    2.31613   2.32370   2.33122   2.33787   2.34319
 Alpha virt. eigenvalues --    2.34447   2.35242   2.36016   2.36280   2.36490
 Alpha virt. eigenvalues --    2.37618   2.38457   2.38925   2.39573   2.40259
 Alpha virt. eigenvalues --    2.40808   2.40878   2.41070   2.41982   2.42589
 Alpha virt. eigenvalues --    2.43020   2.43405   2.44849   2.45295   2.45818
 Alpha virt. eigenvalues --    2.46597   2.46940   2.48081   2.48956   2.49184
 Alpha virt. eigenvalues --    2.50090   2.51026   2.51659   2.52074   2.53487
 Alpha virt. eigenvalues --    2.54246   2.54576   2.55576   2.56066   2.57093
 Alpha virt. eigenvalues --    2.57448   2.58951   2.59958   2.60611   2.61020
 Alpha virt. eigenvalues --    2.61199   2.61571   2.62259   2.62518   2.63183
 Alpha virt. eigenvalues --    2.64444   2.64678   2.65782   2.66369   2.67866
 Alpha virt. eigenvalues --    2.68414   2.68452   2.69562   2.70023   2.70972
 Alpha virt. eigenvalues --    2.71793   2.72329   2.73098   2.73554   2.74001
 Alpha virt. eigenvalues --    2.74491   2.75167   2.75736   2.78172   2.79171
 Alpha virt. eigenvalues --    2.79483   2.79771   2.80070   2.80415   2.80494
 Alpha virt. eigenvalues --    2.80878   2.81999   2.82351   2.82432   2.82880
 Alpha virt. eigenvalues --    2.84053   2.84523   2.85288   2.85375   2.86100
 Alpha virt. eigenvalues --    2.86637   2.87172   2.87535   2.88423   2.89394
 Alpha virt. eigenvalues --    2.90097   2.91126   2.93573   2.94629   2.95105
 Alpha virt. eigenvalues --    2.98011   2.98541   2.98802   3.00092   3.00224
 Alpha virt. eigenvalues --    3.03773   3.04837   3.06217   3.07931   3.09882
 Alpha virt. eigenvalues --    3.10693   3.12200   3.14149   3.14787   3.15101
 Alpha virt. eigenvalues --    3.15722   3.16066   3.17266   3.20082   3.22169
 Alpha virt. eigenvalues --    3.22980   3.23279   3.23520   3.27764   3.32422
 Alpha virt. eigenvalues --    3.45588   3.46874   3.49349   3.50011   3.51105
 Alpha virt. eigenvalues --    3.52849   3.53966   3.56790   3.59765   3.60613
 Alpha virt. eigenvalues --    3.62922   3.71642   3.74770
          Condensed to atoms (all electrons):
 Mulliken charges:
               1
     1  N   -0.312628
     2  C    0.180788
     3  C    0.036880
     4  N   -0.260214
     5  C    0.135376
     6  H    0.028705
     7  N   -0.284449
     8  C    0.124214
     9  H    0.009413
    10  N   -0.285879
    11  C    0.245551
    12  C    0.123118
    13  N   -0.057809
    14  H    0.107262
    15  H    0.087666
    16  H    0.026466
    17  H    0.034576
    18  H    0.027764
    19  N   -0.304545
    20  C    0.215043
    21  C    0.182536
    22  N   -0.081376
    23  H    0.109549
    24  H    0.094857
    25  N   -0.263822
    26  C    0.184394
    27  N   -0.108916
    28  H    0.121898
    29  C    0.124065
    30  O   -0.318167
    31  C    0.015571
    32  N   -0.218556
    33  C    0.120022
    34  H    0.028679
    35  H    0.021981
    36  H    0.027390
    37  H    0.024729
    38  H    0.061697
    39  H    0.059980
    40  H    0.070886
    41  H    0.031654
    42  C   -0.112743
    43  O   -0.264158
    44  C    0.179051
    45  H    0.135100
    46  N   -0.138277
    47  O   -0.348531
    48  C    0.362718
    49  H    0.047530
    50  C    0.172374
    51  C    0.041575
    52  N   -0.294433
    53  H    0.021031
    54  H    0.027846
    55  H    0.007465
    56  H    0.121918
    57  H    0.117355
    58  N   -0.068453
    59  C    0.116300
    60  C    0.233477
    61  N   -0.269081
    62  H    0.086902
    63  C    0.161081
    64  N   -0.298465
    65  H    0.032536
    66  C    0.137488
    67  N   -0.262856
    68  C    0.023557
    69  C    0.194928
    70  N   -0.329584
 Sum of Mulliken charges =  -0.00000
 Mulliken charges with hydrogens summed into heavy atoms:
               1
     1  N   -0.312628
     2  C    0.269594
     3  C    0.036880
     4  N   -0.260214
     5  C    0.164081
     7  N   -0.284449
     8  C    0.133627
    10  N   -0.285879
    11  C    0.245551
    12  C    0.123118
    13  N    0.137119
    19  N   -0.304545
    20  C    0.215043
    21  C    0.256636
    22  N    0.123030
    25  N   -0.263822
    26  C    0.184394
    27  N    0.012982
    29  C    0.124065
    30  O   -0.318167
    31  C    0.015571
    32  N   -0.218556
    33  C    0.148701
    42  C   -0.081089
    43  O   -0.264158
    44  C    0.179051
    46  N   -0.003177
    47  O   -0.348531
    48  C    0.362718
    50  C    0.219904
    51  C    0.234140
    52  N   -0.294433
    58  N    0.170820
    59  C    0.116300
    60  C    0.233477
    61  N   -0.269081
    63  C    0.247983
    64  N   -0.298465
    66  C    0.170024
    67  N   -0.262856
    68  C    0.023557
    69  C    0.251269
    70  N   -0.329584
 Electronic spatial extent (au):  <R**2>=          23347.8286
 Charge=              0.0000 electrons
 Dipole moment (field-independent basis, Debye):
    X=              6.9658    Y=              5.1325    Z=              4.1747  Tot=              9.6069
 Quadrupole moment (field-independent basis, Debye-Ang):
   XX=           -146.2222   YY=           -224.7878   ZZ=           -255.2050
   XY=              4.7944   XZ=             11.4913   YZ=            -12.7002
 Traceless Quadrupole moment (field-independent basis, Debye-Ang):
   XX=             62.5161   YY=            -16.0495   ZZ=            -46.4667
   XY=              4.7944   XZ=             11.4913   YZ=            -12.7002
 Octapole moment (field-independent basis, Debye-Ang**2):
  XXX=             -0.2707  YYY=            116.4619  ZZZ=              7.9246  XYY=             61.8710
  XXY=            -74.3134  XXZ=            -51.9451  XZZ=              9.1650  YZZ=             15.3284
  YYZ=             62.4996  XYZ=             28.9013
 Hexadecapole moment (field-independent basis, Debye-Ang**3):
 XXXX=         -15468.6372 YYYY=          -5935.7401 ZZZZ=          -2982.5162 XXXY=            448.7439
 XXXZ=            123.0023 YYYX=             30.0248 YYYZ=           -133.5668 ZZZX=             17.8091
 ZZZY=            -56.1027 XXYY=          -3967.6629 XXZZ=          -4131.4762 YYZZ=          -1498.2398
 XXYZ=             76.5313 YYXZ=            231.3772 ZZXY=            -10.5014
 N-N= 5.532336460454D+03 E-N=-1.584550294150D+04  KE= 2.038700231526D+03
 No NMR shielding tensors so no spin-rotation constants.
 Leave Link  601 at Wed Jan 24 02:21:51 2018, MaxMem=  4294967296 cpu:              49.2 elap:               1.7
 (Enter /share/apps/g16/l9999.exe)
 1\1\GINC-COMPUTE-0-3\SP\RwB97XD\CC-pVDZ\C23H27N17O3\SATYA\24-Jan-2018\
 0\\#p wb97xd/cc-pvdz sp scf=(maxcycles=20)\\Base pair stacking\\0,1\N,
 0,5.98151,4.84539,-8.51972\C,0,7.08908,5.80697,-8.683\C,0,4.06409,3.91
 225,-7.98117\N,0,4.79413,2.94066,-8.65034\C,0,5.92009,3.54173,-8.94802
 \H,0,6.7481,3.07702,-9.48409\N,0,2.3516,5.03891,-6.81456\C,0,3.16109,6
 .10298,-6.80752\H,0,2.7603,6.98891,-6.31684\N,0,4.38558,6.23638,-7.313
 23\C,0,4.78298,5.09163,-7.89292\C,0,2.78051,3.90235,-7.40561\N,0,1.973
 9,2.8391,-7.41366\H,0,2.25013,1.97696,-7.83983\H,0,1.06651,2.86805,-6.
 9942\H,0,7.27153,5.94518,-9.65654\H,0,6.83836,6.67949,-8.2647\H,0,7.91
 106,5.45036,-8.23895\N,0,2.57237,6.13796,-3.52582\C,0,1.44751,5.38964,
 -3.27528\C,0,2.64954,7.61123,-3.46087\N,0,-1.91061,5.20462,-2.40894\H,
 0,-2.5985,4.49269,-2.27042\H,0,-2.20489,6.15162,-2.27738\N,0,0.23352,5
 .87063,-2.93044\C,0,-0.64992,4.9039,-2.75556\N,0,-0.36807,3.56774,-2.9
 0636\H,0,-1.10605,2.89795,-2.75232\C,0,0.87389,3.05016,-3.26062\O,0,1.
 02268,1.8268,-3.37014\C,0,1.8333,4.07671,-3.45188\N,0,3.17339,4.00227,
 -3.80616\C,0,3.56916,5.24589,-3.83768\H,0,4.58122,5.56942,-4.08331\H,0
 ,2.91515,7.97245,-4.35405\H,0,1.75603,7.97878,-3.20628\H,0,3.32689,7.8
 8138,-2.77748\H,0,-5.35635,0.1212,-2.47422\H,0,-4.78108,-0.21698,-0.84
 347\H,0,-4.42195,1.33538,-1.60014\H,0,-1.98237,-3.1819,-3.3975\C,0,-2.
 05422,-2.12218,-3.15239\O,0,0.1637,-1.62599,-3.8319\C,0,-0.9236,-1.273
 75,-3.37529\H,0,-0.34425,0.67881,-3.17476\N,0,-1.12071,0.04847,-3.0315
 7\O,0,-2.34101,1.79222,-2.23948\C,0,-2.26185,0.60751,-2.51309\H,0,-4.0
 6878,-2.20857,-2.45965\C,0,-3.18108,-1.60616,-2.64788\C,0,-4.54844,0.2
 7728,-1.77494\N,0,-3.30806,-0.27453,-2.32693\H,0,-4.77867,5.9388,-3.49
 316\H,0,-3.21017,5.96723,-3.04471\H,0,-4.29307,5.1131,-2.17186\H,0,-1.
 00243,0.6981,-7.14564\H,0,-2.62883,0.50211,-6.66972\N,0,-1.79025,1.047
 09,-6.63802\C,0,-1.72648,2.18837,-5.94912\C,0,-2.58578,3.9149,-4.55539
 \N,0,-1.44641,4.62599,-4.53065\H,0,0.45634,4.53562,-5.28695\C,0,-0.504
 29,4.02343,-5.2533\N,0,-0.5662,2.88033,-5.94401\H,0,-5.66154,3.1811,-3
 .88204\C,0,-4.6351,3.19712,-4.2496\N,0,-4.10446,2.27795,-5.01851\C,0,-
 2.80524,2.72086,-5.21995\C,0,-4.03446,5.4039,-3.09312\N,0,-3.77233,4.2
 1713,-3.93029\\Version=EM64L-G16RevA.03\State=1-A\HF=-2048.5680902\RMS
 D=9.670e-09\Dipole=-3.5944236,0.9931833,0.6160395\Quadrupole=25.374869
 8,-10.3044869,-15.0703829,25.183884,-28.0207993,3.8678562\PG=C01 [X(C2
 3H27N17O3)]\\@


 It is also a good rule not to put too much confidence in
 experimental results until they have been confirmed by
 Theory.
                             -- Sir Arthur Eddington
 Job cpu time:       0 days  6 hours 17 minutes 14.5 seconds.
 Elapsed time:       0 days  0 hours 12 minutes 10.2 seconds.
 File lengths (MBytes):  RWF=    298 Int=      0 D2E=      0 Chk=     33 Scr=      1
 Normal termination of Gaussian 16 at Wed Jan 24 02:21:51 2018.
