 Entering Gaussian System, Link 0=g16
 Input=str45.-5.0.5.com
 Output=str45.-5.0.5.log
 Initial command:
 /share/apps/g16/l1.exe "/state/partition1/scr/Gau-14865.inp" -scrdir="/state/partition1/scr/"
 Entering Link 1 = /share/apps/g16/l1.exe PID=     14866.
  
 Copyright (c) 1988,1990,1992,1993,1995,1998,2003,2009,2016,
            Gaussian, Inc.  All Rights Reserved.
  
 This is part of the Gaussian(R) 16 program.  It is based on
 the Gaussian(R) 09 system (copyright 2009, Gaussian, Inc.),
 the Gaussian(R) 03 system (copyright 2003, Gaussian, Inc.),
 the Gaussian(R) 98 system (copyright 1998, Gaussian, Inc.),
 the Gaussian(R) 94 system (copyright 1995, Gaussian, Inc.),
 the Gaussian 92(TM) system (copyright 1992, Gaussian, Inc.),
 the Gaussian 90(TM) system (copyright 1990, Gaussian, Inc.),
 the Gaussian 88(TM) system (copyright 1988, Gaussian, Inc.),
 the Gaussian 86(TM) system (copyright 1986, Carnegie Mellon
 University), and the Gaussian 82(TM) system (copyright 1983,
 Carnegie Mellon University). Gaussian is a federally registered
 trademark of Gaussian, Inc.
  
 This software contains proprietary and confidential information,
 including trade secrets, belonging to Gaussian, Inc.
  
 This software is provided under written license and may be
 used, copied, transmitted, or stored only in accord with that
 written license.
  
 The following legend is applicable only to US Government
 contracts under FAR:
  
                    RESTRICTED RIGHTS LEGEND
  
 Use, reproduction and disclosure by the US Government is
 subject to restrictions as set forth in subparagraphs (a)
 and (c) of the Commercial Computer Software - Restricted
 Rights clause in FAR 52.227-19.
  
 Gaussian, Inc.
 340 Quinnipiac St., Bldg. 40, Wallingford CT 06492
  
  
 ---------------------------------------------------------------
 Warning -- This program may not be used in any manner that
 competes with the business of Gaussian, Inc. or will provide
 assistance to any competitor of Gaussian, Inc.  The licensee
 of this program is prohibited from giving any competitor of
 Gaussian, Inc. access to this program.  By using this program,
 the user acknowledges that Gaussian, Inc. is engaged in the
 business of creating and licensing software in the field of
 computational chemistry and represents and warrants to the
 licensee that it is not a competitor of Gaussian, Inc. and that
 it will not use this program in any manner prohibited above.
 ---------------------------------------------------------------
  

 Cite this work as:
 Gaussian 16, Revision A.03,
 M. J. Frisch, G. W. Trucks, H. B. Schlegel, G. E. Scuseria, 
 M. A. Robb, J. R. Cheeseman, G. Scalmani, V. Barone, 
 G. A. Petersson, H. Nakatsuji, X. Li, M. Caricato, A. V. Marenich, 
 J. Bloino, B. G. Janesko, R. Gomperts, B. Mennucci, H. P. Hratchian, 
 J. V. Ortiz, A. F. Izmaylov, J. L. Sonnenberg, D. Williams-Young, 
 F. Ding, F. Lipparini, F. Egidi, J. Goings, B. Peng, A. Petrone, 
 T. Henderson, D. Ranasinghe, V. G. Zakrzewski, J. Gao, N. Rega, 
 G. Zheng, W. Liang, M. Hada, M. Ehara, K. Toyota, R. Fukuda, 
 J. Hasegawa, M. Ishida, T. Nakajima, Y. Honda, O. Kitao, H. Nakai, 
 T. Vreven, K. Throssell, J. A. Montgomery, Jr., J. E. Peralta, 
 F. Ogliaro, M. J. Bearpark, J. J. Heyd, E. N. Brothers, K. N. Kudin, 
 V. N. Staroverov, T. A. Keith, R. Kobayashi, J. Normand, 
 K. Raghavachari, A. P. Rendell, J. C. Burant, S. S. Iyengar, 
 J. Tomasi, M. Cossi, J. M. Millam, M. Klene, C. Adamo, R. Cammi, 
 J. W. Ochterski, R. L. Martin, K. Morokuma, O. Farkas, 
 J. B. Foresman, and D. J. Fox, Gaussian, Inc., Wallingford CT, 2016.
 
 ******************************************
 Gaussian 16:  EM64L-G16RevA.03 25-Dec-2016
                24-Jan-2018 
 ******************************************
 %nprocshared=32
 Will use up to   32 processors via shared memory.
 %mem=32GB
 %chk=allatoms_t.chk
 ---------------------------------------
 #p wb97xd/cc-pvdz sp scf=(maxcycles=20)
 ---------------------------------------
 1/38=1,172=1/1;
 2/12=2,17=6,18=5,40=1/2;
 3/5=16,11=2,25=1,30=1,74=-58/1,2,3;
 4//1;
 5/5=2,7=20,38=5/2;
 6/7=2,8=2,9=2,10=2,28=1/1;
 99/5=1,9=1/99;
 Leave Link    1 at Wed Jan 24 04:18:01 2018, MaxMem=  4294967296 cpu:               2.7 elap:               0.1
 (Enter /share/apps/g16/l101.exe)
 ------------------
 Base pair stacking
 ------------------
 Symbolic Z-matrix:
 Charge =  0 Multiplicity = 1
 N                     4.54643   0.92186  -6.85332 
 C                     5.64514   1.90032  -6.96935 
 C                     2.56088  -0.00157  -6.64797 
 N                     3.46826  -1.04748  -6.7343 
 C                     4.62816  -0.44929  -6.85457 
 H                     5.58461  -0.96438  -6.94857 
 N                     0.56389   1.2381   -6.45253 
 C                     1.32567   2.33375  -6.53511 
 H                     0.7873    3.27924  -6.48554 
 N                     2.64644   2.43632  -6.66909 
 C                     3.21066   1.21833  -6.71987 
 C                     1.16155   0.02775  -6.50673 
 N                     0.40281  -1.06711  -6.42446 
 H                     0.80256  -1.9837   -6.46016 
 H                    -0.59051  -1.00851  -6.32439 
 H                     6.12347   1.7651   -7.83715 
 H                     5.27202   2.82705  -6.93639 
 H                     6.28761   1.77441  -6.21345 
 N                     2.0543    3.86081  -3.29756 
 C                     0.90173   3.11546  -3.2335 
 C                     2.11546   5.33519  -3.35365 
 N                    -2.56493   2.94122  -3.11672 
 H                    -3.26657   2.23087  -3.06829 
 H                    -2.88086   3.89006  -3.1415 
 N                    -0.3584    3.60086  -3.2112 
 C                    -1.25883   2.63611  -3.1471 
 N                    -0.95085   1.29779  -3.10776 
 H                    -1.70475   0.62978  -3.05923 
 C                     0.33864   0.77568  -3.12965 
 O                     0.50776  -0.4493   -3.09005 
 C                     1.3168    1.80006  -3.19841 
 N                     2.70207   1.72118  -3.23962 
 C                     3.09524   2.96466  -3.2978 
 H                     4.13664   3.28519  -3.34273 
 H                     2.57257   5.6197   -4.19562 
 H                     1.18782   5.70599  -3.33773 
 H                     2.62448   5.67956  -2.56554 
 H                    -5.9115   -2.19625  -3.47099 
 H                    -5.71221  -2.37423  -1.72936 
 H                    -5.19391  -0.88947  -2.52825 
 H                    -2.41748  -5.5      -3.3171 
 C                    -2.54167  -4.42417  -3.19295 
 O                    -0.22819  -3.94638  -3.40886 
 C                    -1.38959  -3.57653  -3.23816 
 H                    -0.86871  -1.6025   -3.09604 
 N                    -1.65773  -2.23298  -3.07018 
 O                    -3.02291  -0.45002  -2.73176 
 C                    -2.8853   -1.65272  -2.87041 
 H                    -4.65971  -4.48859  -2.95718 
 C                    -3.75223  -3.88773  -2.99962 
 C                    -5.27872  -1.96137  -2.62808 
 N                    -3.94693  -2.53543  -2.83914 
 H                    -7.25246   2.34527  -5.85158 
 H                    -5.90426   2.66223  -4.98904 
 H                    -7.20282   1.99621  -4.25812 
 H                    -2.49797  -3.32527  -6.40411 
 H                    -4.1907   -3.53673  -6.39715 
 N                    -3.40683  -2.92447  -6.28801 
 C                    -3.56748  -1.63116  -6.00041 
 C                    -4.82832   0.33164  -5.532 
 N                    -3.7574    1.13021  -5.39117 
 H                    -1.71304   1.01524  -5.48049 
 C                    -2.63344   0.44096  -5.57705 
 N                    -2.47046  -0.85442  -5.86517 
 H                    -7.95678  -0.47991  -5.61104 
 C                    -6.86692  -0.46851  -5.64278 
 N                    -6.11776  -1.51396  -5.89471 
 C                    -4.8229   -1.02045  -5.82756 
 C                    -6.66924   2.02909  -5.10334 
 N                    -6.15242   0.68206  -5.41385 
 
 ITRead=  0  0  0  0  0  0  0  0  0  0  0  0  0  0  0  0  0  0  0  0
 ITRead=  0  0  0  0  0  0  0  0  0  0  0  0  0  0  0  0  0  0  0  0
 ITRead=  0  0  0  0  0  0  0  0  0  0  0  0  0  0  0  0  0  0  0  0
 ITRead=  0  0  0  0  0  0  0  0  0  0
 MicOpt= -1 -1 -1 -1 -1 -1 -1 -1 -1 -1 -1 -1 -1 -1 -1 -1 -1 -1 -1 -1
 MicOpt= -1 -1 -1 -1 -1 -1 -1 -1 -1 -1 -1 -1 -1 -1 -1 -1 -1 -1 -1 -1
 MicOpt= -1 -1 -1 -1 -1 -1 -1 -1 -1 -1 -1 -1 -1 -1 -1 -1 -1 -1 -1 -1
 MicOpt= -1 -1 -1 -1 -1 -1 -1 -1 -1 -1
 NAtoms=     70 NQM=       70 NQMF=       0 NMMI=      0 NMMIF=      0
                NMic=       0 NMicF=      0.
                    Isotopes and Nuclear Properties:
 (Nuclear quadrupole moments (NQMom) in fm**2, nuclear magnetic moments (NMagM)
  in nuclear magnetons)

  Atom         1           2           3           4           5           6           7           8           9          10
 IAtWgt=          14          12          12          14          12           1          14          12           1          14
 AtmWgt=  14.0030740  12.0000000  12.0000000  14.0030740  12.0000000   1.0078250  14.0030740  12.0000000   1.0078250  14.0030740
 NucSpn=           2           0           0           2           0           1           2           0           1           2
 AtZEff=  -0.0000000  -0.0000000  -0.0000000  -0.0000000  -0.0000000  -0.0000000  -0.0000000  -0.0000000  -0.0000000  -0.0000000
 NQMom=    2.0440000   0.0000000   0.0000000   2.0440000   0.0000000   0.0000000   2.0440000   0.0000000   0.0000000   2.0440000
 NMagM=    0.4037610   0.0000000   0.0000000   0.4037610   0.0000000   2.7928460   0.4037610   0.0000000   2.7928460   0.4037610
 AtZNuc=   7.0000000   6.0000000   6.0000000   7.0000000   6.0000000   1.0000000   7.0000000   6.0000000   1.0000000   7.0000000

  Atom        11          12          13          14          15          16          17          18          19          20
 IAtWgt=          12          12          14           1           1           1           1           1          14          12
 AtmWgt=  12.0000000  12.0000000  14.0030740   1.0078250   1.0078250   1.0078250   1.0078250   1.0078250  14.0030740  12.0000000
 NucSpn=           0           0           2           1           1           1           1           1           2           0
 AtZEff=  -0.0000000  -0.0000000  -0.0000000  -0.0000000  -0.0000000  -0.0000000  -0.0000000  -0.0000000  -0.0000000  -0.0000000
 NQMom=    0.0000000   0.0000000   2.0440000   0.0000000   0.0000000   0.0000000   0.0000000   0.0000000   2.0440000   0.0000000
 NMagM=    0.0000000   0.0000000   0.4037610   2.7928460   2.7928460   2.7928460   2.7928460   2.7928460   0.4037610   0.0000000
 AtZNuc=   6.0000000   6.0000000   7.0000000   1.0000000   1.0000000   1.0000000   1.0000000   1.0000000   7.0000000   6.0000000

  Atom        21          22          23          24          25          26          27          28          29          30
 IAtWgt=          12          14           1           1          14          12          14           1          12          16
 AtmWgt=  12.0000000  14.0030740   1.0078250   1.0078250  14.0030740  12.0000000  14.0030740   1.0078250  12.0000000  15.9949146
 NucSpn=           0           2           1           1           2           0           2           1           0           0
 AtZEff=  -0.0000000  -0.0000000  -0.0000000  -0.0000000  -0.0000000  -0.0000000  -0.0000000  -0.0000000  -0.0000000  -0.0000000
 NQMom=    0.0000000   2.0440000   0.0000000   0.0000000   2.0440000   0.0000000   2.0440000   0.0000000   0.0000000   0.0000000
 NMagM=    0.0000000   0.4037610   2.7928460   2.7928460   0.4037610   0.0000000   0.4037610   2.7928460   0.0000000   0.0000000
 AtZNuc=   6.0000000   7.0000000   1.0000000   1.0000000   7.0000000   6.0000000   7.0000000   1.0000000   6.0000000   8.0000000

  Atom        31          32          33          34          35          36          37          38          39          40
 IAtWgt=          12          14          12           1           1           1           1           1           1           1
 AtmWgt=  12.0000000  14.0030740  12.0000000   1.0078250   1.0078250   1.0078250   1.0078250   1.0078250   1.0078250   1.0078250
 NucSpn=           0           2           0           1           1           1           1           1           1           1
 AtZEff=  -0.0000000  -0.0000000  -0.0000000  -0.0000000  -0.0000000  -0.0000000  -0.0000000  -0.0000000  -0.0000000  -0.0000000
 NQMom=    0.0000000   2.0440000   0.0000000   0.0000000   0.0000000   0.0000000   0.0000000   0.0000000   0.0000000   0.0000000
 NMagM=    0.0000000   0.4037610   0.0000000   2.7928460   2.7928460   2.7928460   2.7928460   2.7928460   2.7928460   2.7928460
 AtZNuc=   6.0000000   7.0000000   6.0000000   1.0000000   1.0000000   1.0000000   1.0000000   1.0000000   1.0000000   1.0000000

  Atom        41          42          43          44          45          46          47          48          49          50
 IAtWgt=           1          12          16          12           1          14          16          12           1          12
 AtmWgt=   1.0078250  12.0000000  15.9949146  12.0000000   1.0078250  14.0030740  15.9949146  12.0000000   1.0078250  12.0000000
 NucSpn=           1           0           0           0           1           2           0           0           1           0
 AtZEff=  -0.0000000  -0.0000000  -0.0000000  -0.0000000  -0.0000000  -0.0000000  -0.0000000  -0.0000000  -0.0000000  -0.0000000
 NQMom=    0.0000000   0.0000000   0.0000000   0.0000000   0.0000000   2.0440000   0.0000000   0.0000000   0.0000000   0.0000000
 NMagM=    2.7928460   0.0000000   0.0000000   0.0000000   2.7928460   0.4037610   0.0000000   0.0000000   2.7928460   0.0000000
 AtZNuc=   1.0000000   6.0000000   8.0000000   6.0000000   1.0000000   7.0000000   8.0000000   6.0000000   1.0000000   6.0000000

  Atom        51          52          53          54          55          56          57          58          59          60
 IAtWgt=          12          14           1           1           1           1           1          14          12          12
 AtmWgt=  12.0000000  14.0030740   1.0078250   1.0078250   1.0078250   1.0078250   1.0078250  14.0030740  12.0000000  12.0000000
 NucSpn=           0           2           1           1           1           1           1           2           0           0
 AtZEff=  -0.0000000  -0.0000000  -0.0000000  -0.0000000  -0.0000000  -0.0000000  -0.0000000  -0.0000000  -0.0000000  -0.0000000
 NQMom=    0.0000000   2.0440000   0.0000000   0.0000000   0.0000000   0.0000000   0.0000000   2.0440000   0.0000000   0.0000000
 NMagM=    0.0000000   0.4037610   2.7928460   2.7928460   2.7928460   2.7928460   2.7928460   0.4037610   0.0000000   0.0000000
 AtZNuc=   6.0000000   7.0000000   1.0000000   1.0000000   1.0000000   1.0000000   1.0000000   7.0000000   6.0000000   6.0000000

  Atom        61          62          63          64          65          66          67          68          69          70
 IAtWgt=          14           1          12          14           1          12          14          12          12          14
 AtmWgt=  14.0030740   1.0078250  12.0000000  14.0030740   1.0078250  12.0000000  14.0030740  12.0000000  12.0000000  14.0030740
 NucSpn=           2           1           0           2           1           0           2           0           0           2
 AtZEff=  -0.0000000  -0.0000000  -0.0000000  -0.0000000  -0.0000000  -0.0000000  -0.0000000  -0.0000000  -0.0000000  -0.0000000
 NQMom=    2.0440000   0.0000000   0.0000000   2.0440000   0.0000000   0.0000000   2.0440000   0.0000000   0.0000000   2.0440000
 NMagM=    0.4037610   2.7928460   0.0000000   0.4037610   2.7928460   0.0000000   0.4037610   0.0000000   0.0000000   0.4037610
 AtZNuc=   7.0000000   1.0000000   6.0000000   7.0000000   1.0000000   6.0000000   7.0000000   6.0000000   6.0000000   7.0000000
 Leave Link  101 at Wed Jan 24 04:18:01 2018, MaxMem=  4294967296 cpu:               7.5 elap:               0.3
 (Enter /share/apps/g16/l202.exe)
 Stoichiometry    C23H27N17O3
 Framework group  C1[X(C23H27N17O3)]
 Deg. of freedom   204
 Full point group                 C1      NOp   1
 Largest Abelian subgroup         C1      NOp   1
 Largest concise Abelian subgroup C1      NOp   1
                         Standard orientation:                         
 ---------------------------------------------------------------------
 Center     Atomic      Atomic             Coordinates (Angstroms)
 Number     Number       Type             X           Y           Z
 ---------------------------------------------------------------------
      1          7           0        5.527373   -1.754802   -1.234306
      2          6           0        6.922312   -1.277073   -1.297001
      3          6           0        3.330134   -1.849531   -1.255975
      4          7           0        3.771901   -3.141750   -1.011572
      5          6           0        5.077971   -3.032964   -1.008309
      6          1           0        5.768651   -3.860661   -0.844519
      7          7           0        1.950953    0.028031   -1.624170
      8          6           0        3.077966    0.738871   -1.734291
      9          1           0        2.940333    1.801197   -1.931197
     10          7           0        4.343523    0.336349   -1.638136
     11          6           0        4.400761   -0.983602   -1.395488
     12          6           0        2.042166   -1.297523   -1.379895
     13          7           0        0.918278   -2.008785   -1.269641
     14          1           0        0.938280   -2.992775   -1.089152
     15          1           0        0.018484   -1.582560   -1.363639
     16          1           0        7.406614   -1.753601   -2.030850
     17          1           0        6.930918   -0.293855   -1.476838
     18          1           0        7.378571   -1.458888   -0.425923
     19          7           0        3.967165    2.558509    1.305904
     20          6           0        2.617830    2.301161    1.272194
     21          6           0        4.593533    3.867960    1.034456
     22          7           0       -0.641232    3.394376    0.777093
     23          1           0       -1.561872    3.005970    0.805447
     24          1           0       -0.565241    4.365244    0.548263
     25          7           0        1.645327    3.194109    0.987729
     26          6           0        0.443303    2.647666    1.034234
     27          7           0        0.209402    1.327926    1.336026
     28          1           0       -0.742981    0.996608    1.348344
     29          6           0        1.194743    0.391234    1.631952
     30          8           0        0.876819   -0.776055    1.891000
     31          6           0        2.491387    0.963489    1.585942
     32          7           0        3.736283    0.392528    1.812065
     33          6           0        4.579050    1.373683    1.635184
     34          1           0        5.661780    1.287477    1.732843
     35          1           0        5.216033    3.786748    0.256827
     36          1           0        3.882838    4.537468    0.822481
     37          1           0        5.103684    4.168588    1.839551
     38          1           0       -5.635872   -0.175765    0.614929
     39          1           0       -5.716550   -0.039086    2.369773
     40          1           0       -4.583640    0.960472    1.459405
     41          1           0       -3.712495   -4.389325    1.916141
     42          6           0       -3.428787   -3.339074    1.847382
     43          8           0       -1.100083   -3.768596    1.987886
     44          6           0       -2.042888   -2.984380    1.883470
     45          1           0       -0.826011   -1.340506    1.811372
     46          7           0       -1.793705   -1.630014    1.789436
     47          8           0       -2.401663    0.549092    1.591765
     48          6           0       -2.719968   -0.624549    1.668544
     49          1           0       -5.422354   -2.597989    1.698000
     50          6           0       -4.355490   -2.380912    1.730139
     51          6           0       -5.060249   -0.007058    1.512856
     52          7           0       -4.034766   -1.046162    1.640932
     53          1           0       -4.861398    3.930890   -2.644880
     54          1           0       -3.600460    3.925274   -1.609465
     55          1           0       -5.128143    3.933287   -1.034830
     56          1           0       -2.608142   -3.034555   -1.432077
     57          1           0       -4.242232   -2.626487   -1.702868
     58          7           0       -3.301375   -2.323123   -1.547998
     59          6           0       -2.986248   -1.027202   -1.498426
     60          6           0       -3.444304    1.306350   -1.578614
     61          7           0       -2.172477    1.684529   -1.369201
     62          1           0       -0.331532    0.837180   -1.063386
     63          6           0       -1.384485    0.619409   -1.236947
     64          7           0       -1.698208   -0.679332   -1.286277
     65          1           0       -6.615019    1.657799   -2.103180
     66          6           0       -5.607576    1.275653   -1.935986
     67          7           0       -5.292163    0.004743   -1.881420
     68          6           0       -3.923386    0.010149   -1.655270
     69          6           0       -4.531401    3.595110   -1.762649
     70          7           0       -4.537860    2.119317   -1.760861
 ---------------------------------------------------------------------
 Rotational constants (GHZ):           0.1319833           0.0581647           0.0517519
 Leave Link  202 at Wed Jan 24 04:18:01 2018, MaxMem=  4294967296 cpu:               0.3 elap:               0.0
 (Enter /share/apps/g16/l301.exe)
 Standard basis: CC-pVDZ (5D, 7F)
 Ernie: Thresh=  0.10000D-02 Tol=  0.10000D-05 Strict=F.
 Ernie:  86 primitive shells out of 1081 were deleted.
 There are   780 symmetry adapted cartesian basis functions of A   symmetry.
 There are   737 symmetry adapted basis functions of A   symmetry.
   737 basis functions,  1608 primitive gaussians,   780 cartesian basis functions
   154 alpha electrons      154 beta electrons
       nuclear repulsion energy      5519.8617568446 Hartrees.
 IExCor= 4639 DFT=T Ex+Corr=wB97XD ExCW=0 ScaHFX=  1.000000
 ScaDFX=  1.000000  1.000000  1.000000  1.000000 ScalE2=  1.000000  1.000000
 IRadAn=      5 IRanWt=     -1 IRanGd=            0 ICorTp=0 IEmpDi=121
 HFx  wShort=  0.000000 wLong=  0.200000 cFull=  0.222036 cShort=  0.000000 cLong=  0.777964
 DFx  wShort=  0.000000 wLong=  0.200000 cFull=  0.000000 cShort=  0.000000 cLong=  1.000000
 NAtoms=   70 NActive=   70 NUniq=   70 SFac= 1.00D+00 NAtFMM=   60 NAOKFM=T Big=T
 Integral buffers will be    131072 words long.
 Raffenetti 2 integral format.
 Two-electron integral symmetry is turned on.
 R6Disp:  Grimme-D2 Dispersion energy=       -0.0713575779 Hartrees.
 Nuclear repulsion after empirical dispersion term =     5519.7903992667 Hartrees.
 Leave Link  301 at Wed Jan 24 04:18:02 2018, MaxMem=  4294967296 cpu:               2.1 elap:               0.1
 (Enter /share/apps/g16/l302.exe)
 NPDir=0 NMtPBC=     1 NCelOv=     1 NCel=       1 NClECP=     1 NCelD=      1
         NCelK=      1 NCelE2=     1 NClLst=     1 CellRange=     0.0.
 One-electron integrals computed using PRISM.
 One-electron integral symmetry used in STVInt
 NBasis=   737 RedAO= T EigKep=  6.94D-04  NBF=   737
 NBsUse=   737 1.00D-06 EigRej= -1.00D+00 NBFU=   737
 Precomputing XC quadrature grid using
 IXCGrd= 4 IRadAn=           5 IRanWt=          -1 IRanGd=           0 AccXCQ= 0.00D+00.
 Generated NRdTot=       0 NPtTot=           0 NUsed=           0 NTot=          32
 NSgBfM=   765   761   761   762   765 MxSgAt=    70 MxSgA2=    70.
 Leave Link  302 at Wed Jan 24 04:18:06 2018, MaxMem=  4294967296 cpu:             134.4 elap:               4.2
 (Enter /share/apps/g16/l303.exe)
 DipDrv:  MaxL=1.
 Leave Link  303 at Wed Jan 24 04:18:06 2018, MaxMem=  4294967296 cpu:              12.4 elap:               0.4
 (Enter /share/apps/g16/l401.exe)
 ExpMin= 1.22D-01 ExpMax= 1.17D+04 ExpMxC= 4.01D+02 IAcc=3 IRadAn=         5 AccDes= 0.00D+00
 Harris functional with IExCor= 4639 and IRadAn=       5 diagonalized for initial guess.
 HarFok:  IExCor= 4639 AccDes= 0.00D+00 IRadAn=         5 IDoV= 1 UseB2=F ITyADJ=14
 ICtDFT=  3500011 ScaDFX=  1.000000  1.000000  1.000000  1.000000
 FoFCou: FMM=F IPFlag=           0 FMFlag=      100000 FMFlg1=        2001
         NFxFlg=           0 DoJE=T BraDBF=F KetDBF=T FulRan=T
         wScrn=  0.000000 ICntrl=       500 IOpCl=  0 I1Cent=   200000004 NGrid=           0
         NMat0=    1 NMatS0=      1 NMatT0=    0 NMatD0=    1 NMtDS0=    0 NMtDT0=    0
 Petite list used in FoFCou.
 Harris En= -1963.89083151535    
 JPrj=0 DoOrth=F DoCkMO=F.
 Leave Link  401 at Wed Jan 24 04:18:19 2018, MaxMem=  4294967296 cpu:             409.9 elap:              13.0
 (Enter /share/apps/g16/l502.exe)
 Integral symmetry usage will be decided dynamically.
 Closed shell SCF:
 Using DIIS extrapolation, IDIIS=  1040.
 NGot=  4294967296 LenX=  4293717438 LenY=  4293108258
 Requested convergence on RMS density matrix=1.00D-08 within  20 cycles.
 Requested convergence on MAX density matrix=1.00D-06.
 Requested convergence on             energy=1.00D-06.
 No special actions if energy rises.
 Fock matrices will be formed incrementally for  20 cycles.
 Integral accuracy reduced to 1.0D-05 until final iterations.

 Cycle   1  Pass 0  IDiag  1:
 FoFJK:  IHMeth= 1 ICntrl=       0 DoSepK=T KAlg= 0 I1Cent=           0 FoldK=F
 IRaf=         1 NMat=       1 IRICut=       1 DoRegI=T DoRafI=F ISym2E= 0 IDoP0=0 IntGTp=1.
 FoFCou: FMM=T IPFlag=           0 FMFlag=      100000 FMFlg1=        2001
         NFxFlg=           0 DoJE=T BraDBF=F KetDBF=F FulRan=T
         wScrn=  0.000000 ICntrl=       500 IOpCl=  0 I1Cent=           0 NGrid=           0
         NMat0=    1 NMatS0=      1 NMatT0=    0 NMatD0=    1 NMtDS0=    0 NMtDT0=    0
 Symmetry not used in FoFCou.
 FMM levels:  10  Number of levels for PrismC:   9
 E= -2048.31980587672    
 DIIS: error= 2.57D-02 at cycle   1 NSaved=   1.
 NSaved= 1 IEnMin= 1 EnMin= -2048.31980587672     IErMin= 1 ErrMin= 2.57D-02
 ErrMax= 2.57D-02  0.00D+00 EMaxC= 1.00D-01 BMatC= 8.31D-01 BMatP= 8.31D-01
 IDIUse=3 WtCom= 7.43D-01 WtEn= 2.57D-01
 Coeff-Com:  0.100D+01
 Coeff-En:   0.100D+01
 Coeff:      0.100D+01
 Gap=     0.249 Goal=   None    Shift=    0.000
 GapD=    0.249 DampG=1.000 DampE=0.500 DampFc=0.5000 IDamp=-1.
 Damping current iteration by 5.00D-01
 RMSDP=1.55D-03 MaxDP=1.32D-01              OVMax= 2.05D-01

 Cycle   2  Pass 0  IDiag  1:
 RMSU=  7.73D-04    CP:  9.98D-01
 E= -2048.51776581664     Delta-E=       -0.197959939916 Rises=F Damp=T
 DIIS: error= 1.44D-02 at cycle   2 NSaved=   2.
 NSaved= 2 IEnMin= 2 EnMin= -2048.51776581664     IErMin= 2 ErrMin= 1.44D-02
 ErrMax= 1.44D-02  0.00D+00 EMaxC= 1.00D-01 BMatC= 1.44D-01 BMatP= 8.31D-01
 IDIUse=3 WtCom= 8.56D-01 WtEn= 1.44D-01
 Coeff-Com: -0.202D+00 0.120D+01
 Coeff-En:   0.000D+00 0.100D+01
 Coeff:     -0.173D+00 0.117D+01
 Gap=     0.315 Goal=   None    Shift=    0.000
 RMSDP=5.74D-04 MaxDP=3.56D-02 DE=-1.98D-01 OVMax= 1.27D-01

 Cycle   3  Pass 0  IDiag  1:
 RMSU=  5.60D-04    CP:  9.94D-01  1.15D+00
 E= -2048.69957815464     Delta-E=       -0.181812337996 Rises=F Damp=F
 DIIS: error= 7.95D-03 at cycle   3 NSaved=   3.
 NSaved= 3 IEnMin= 3 EnMin= -2048.69957815464     IErMin= 3 ErrMin= 7.95D-03
 ErrMax= 7.95D-03  0.00D+00 EMaxC= 1.00D-01 BMatC= 5.92D-02 BMatP= 1.44D-01
 IDIUse=3 WtCom= 9.20D-01 WtEn= 7.95D-02
 Coeff-Com: -0.228D+00 0.540D+00 0.688D+00
 Coeff-En:   0.000D+00 0.000D+00 0.100D+01
 Coeff:     -0.210D+00 0.497D+00 0.713D+00
 Gap=     0.276 Goal=   None    Shift=    0.000
 RMSDP=3.42D-04 MaxDP=3.50D-02 DE=-1.82D-01 OVMax= 6.95D-02

 Cycle   4  Pass 0  IDiag  1:
 RMSU=  1.99D-04    CP:  9.95D-01  1.43D+00  6.79D-01
 E= -2048.74374218310     Delta-E=       -0.044164028467 Rises=F Damp=F
 DIIS: error= 3.29D-03 at cycle   4 NSaved=   4.
 NSaved= 4 IEnMin= 4 EnMin= -2048.74374218310     IErMin= 4 ErrMin= 3.29D-03
 ErrMax= 3.29D-03  0.00D+00 EMaxC= 1.00D-01 BMatC= 8.96D-03 BMatP= 5.92D-02
 IDIUse=3 WtCom= 9.67D-01 WtEn= 3.29D-02
 Coeff-Com: -0.938D-01 0.182D+00 0.382D+00 0.530D+00
 Coeff-En:   0.000D+00 0.000D+00 0.680D-01 0.932D+00
 Coeff:     -0.907D-01 0.176D+00 0.372D+00 0.543D+00
 Gap=     0.280 Goal=   None    Shift=    0.000
 RMSDP=1.25D-04 MaxDP=1.29D-02 DE=-4.42D-02 OVMax= 1.32D-02

 Cycle   5  Pass 0  IDiag  1:
 RMSU=  6.14D-05    CP:  9.94D-01  1.40D+00  8.12D-01  6.17D-01
 E= -2048.75096191594     Delta-E=       -0.007219732839 Rises=F Damp=F
 DIIS: error= 6.96D-04 at cycle   5 NSaved=   5.
 NSaved= 5 IEnMin= 5 EnMin= -2048.75096191594     IErMin= 5 ErrMin= 6.96D-04
 ErrMax= 6.96D-04  0.00D+00 EMaxC= 1.00D-01 BMatC= 3.00D-04 BMatP= 8.96D-03
 IDIUse=3 WtCom= 9.93D-01 WtEn= 6.96D-03
 Coeff-Com: -0.241D-01 0.412D-01 0.123D+00 0.243D+00 0.617D+00
 Coeff-En:   0.000D+00 0.000D+00 0.000D+00 0.000D+00 0.100D+01
 Coeff:     -0.240D-01 0.410D-01 0.123D+00 0.241D+00 0.619D+00
 Gap=     0.280 Goal=   None    Shift=    0.000
 RMSDP=2.53D-05 MaxDP=2.37D-03 DE=-7.22D-03 OVMax= 3.07D-03

 Failed to achieve initial convergence to 1.0D-08 in  6 cycles.
 Switch to full accuracy anyway.
 Cycle   6  Pass 1  IDiag  1:
 E= -2048.75125701171     Delta-E=       -0.000295095769 Rises=F Damp=F
 DIIS: error= 2.07D-04 at cycle   1 NSaved=   1.
 NSaved= 1 IEnMin= 1 EnMin= -2048.75125701171     IErMin= 1 ErrMin= 2.07D-04
 ErrMax= 2.07D-04  0.00D+00 EMaxC= 1.00D-01 BMatC= 7.68D-05 BMatP= 7.68D-05
 IDIUse=3 WtCom= 9.98D-01 WtEn= 2.07D-03
 Coeff-Com:  0.100D+01
 Coeff-En:   0.100D+01
 Coeff:      0.100D+01
 Gap=     0.280 Goal=   None    Shift=    0.000
 RMSDP=2.53D-05 MaxDP=2.37D-03 DE=-2.95D-04 OVMax= 1.83D-03

 Cycle   7  Pass 1  IDiag  1:
 RMSU=  1.20D-04    CP:  1.00D+00
 E= -2048.75131335012     Delta-E=       -0.000056338408 Rises=F Damp=F
 DIIS: error= 3.01D-04 at cycle   2 NSaved=   2.
 NSaved= 2 IEnMin= 2 EnMin= -2048.75131335012     IErMin= 1 ErrMin= 2.07D-04
 ErrMax= 3.01D-04  0.00D+00 EMaxC= 1.00D-01 BMatC= 4.51D-05 BMatP= 7.68D-05
 IDIUse=3 WtCom= 9.97D-01 WtEn= 3.01D-03
 Coeff-Com:  0.410D+00 0.590D+00
 Coeff-En:   0.000D+00 0.100D+01
 Coeff:      0.409D+00 0.591D+00
 Gap=     0.280 Goal=   None    Shift=    0.000
 RMSDP=1.11D-05 MaxDP=1.40D-03 DE=-5.63D-05 OVMax= 1.52D-03

 Cycle   8  Pass 1  IDiag  1:
 RMSU=  1.07D-05    CP:  1.00D+00  1.03D+00
 E= -2048.75134455044     Delta-E=       -0.000031200321 Rises=F Damp=F
 DIIS: error= 1.41D-04 at cycle   3 NSaved=   3.
 NSaved= 3 IEnMin= 3 EnMin= -2048.75134455044     IErMin= 3 ErrMin= 1.41D-04
 ErrMax= 1.41D-04  0.00D+00 EMaxC= 1.00D-01 BMatC= 1.09D-05 BMatP= 4.51D-05
 IDIUse=3 WtCom= 9.99D-01 WtEn= 1.41D-03
 Coeff-Com: -0.197D-01 0.318D+00 0.702D+00
 Coeff-En:   0.000D+00 0.143D+00 0.857D+00
 Coeff:     -0.197D-01 0.317D+00 0.702D+00
 Gap=     0.281 Goal=   None    Shift=    0.000
 RMSDP=5.67D-06 MaxDP=5.56D-04 DE=-3.12D-05 OVMax= 5.61D-04

 Cycle   9  Pass 1  IDiag  1:
 RMSU=  3.79D-06    CP:  1.00D+00  1.05D+00  7.57D-01
 E= -2048.75135424684     Delta-E=       -0.000009696396 Rises=F Damp=F
 DIIS: error= 2.81D-05 at cycle   4 NSaved=   4.
 NSaved= 4 IEnMin= 4 EnMin= -2048.75135424684     IErMin= 4 ErrMin= 2.81D-05
 ErrMax= 2.81D-05  0.00D+00 EMaxC= 1.00D-01 BMatC= 4.94D-07 BMatP= 1.09D-05
 IDIUse=1 WtCom= 1.00D+00 WtEn= 0.00D+00
 Coeff-Com: -0.301D-01 0.893D-01 0.258D+00 0.682D+00
 Coeff:     -0.301D-01 0.893D-01 0.258D+00 0.682D+00
 Gap=     0.280 Goal=   None    Shift=    0.000
 RMSDP=1.40D-06 MaxDP=1.45D-04 DE=-9.70D-06 OVMax= 3.97D-04

 Cycle  10  Pass 1  IDiag  1:
 RMSU=  1.26D-06    CP:  1.00D+00  1.06D+00  7.88D-01  1.10D+00
 E= -2048.75135505489     Delta-E=       -0.000000808053 Rises=F Damp=F
 DIIS: error= 1.30D-05 at cycle   5 NSaved=   5.
 NSaved= 5 IEnMin= 5 EnMin= -2048.75135505489     IErMin= 5 ErrMin= 1.30D-05
 ErrMax= 1.30D-05  0.00D+00 EMaxC= 1.00D-01 BMatC= 1.18D-07 BMatP= 4.94D-07
 IDIUse=1 WtCom= 1.00D+00 WtEn= 0.00D+00
 Coeff-Com: -0.267D-02-0.552D-01-0.120D+00 0.204D+00 0.973D+00
 Coeff:     -0.267D-02-0.552D-01-0.120D+00 0.204D+00 0.973D+00
 Gap=     0.280 Goal=   None    Shift=    0.000
 RMSDP=1.18D-06 MaxDP=7.63D-05 DE=-8.08D-07 OVMax= 1.86D-04

 Cycle  11  Pass 1  IDiag  1:
 RMSU=  4.92D-07    CP:  1.00D+00  1.06D+00  7.98D-01  1.38D+00  1.16D+00
 E= -2048.75135530454     Delta-E=       -0.000000249648 Rises=F Damp=F
 DIIS: error= 7.05D-06 at cycle   6 NSaved=   6.
 NSaved= 6 IEnMin= 6 EnMin= -2048.75135530454     IErMin= 6 ErrMin= 7.05D-06
 ErrMax= 7.05D-06  0.00D+00 EMaxC= 1.00D-01 BMatC= 2.82D-08 BMatP= 1.18D-07
 IDIUse=1 WtCom= 1.00D+00 WtEn= 0.00D+00
 Coeff-Com:  0.462D-02-0.457D-01-0.114D+00-0.225D-02 0.521D+00 0.637D+00
 Coeff:      0.462D-02-0.457D-01-0.114D+00-0.225D-02 0.521D+00 0.637D+00
 Gap=     0.280 Goal=   None    Shift=    0.000
 RMSDP=3.75D-07 MaxDP=3.77D-05 DE=-2.50D-07 OVMax= 9.88D-05

 Cycle  12  Pass 1  IDiag  1:
 RMSU=  1.88D-07    CP:  1.00D+00  1.06D+00  7.98D-01  1.45D+00  1.30D+00
                    CP:  9.07D-01
 E= -2048.75135534531     Delta-E=       -0.000000040774 Rises=F Damp=F
 DIIS: error= 1.26D-06 at cycle   7 NSaved=   7.
 NSaved= 7 IEnMin= 7 EnMin= -2048.75135534531     IErMin= 7 ErrMin= 1.26D-06
 ErrMax= 1.26D-06  0.00D+00 EMaxC= 1.00D-01 BMatC= 9.09D-10 BMatP= 2.82D-08
 IDIUse=1 WtCom= 1.00D+00 WtEn= 0.00D+00
 Coeff-Com:  0.128D-02-0.924D-02-0.247D-01-0.655D-02 0.808D-01 0.169D+00
 Coeff-Com:  0.789D+00
 Coeff:      0.128D-02-0.924D-02-0.247D-01-0.655D-02 0.808D-01 0.169D+00
 Coeff:      0.789D+00
 Gap=     0.280 Goal=   None    Shift=    0.000
 RMSDP=7.80D-08 MaxDP=5.22D-06 DE=-4.08D-08 OVMax= 1.70D-05

 Cycle  13  Pass 1  IDiag  1:
 RMSU=  5.17D-08    CP:  1.00D+00  1.06D+00  7.98D-01  1.45D+00  1.32D+00
                    CP:  9.91D-01  1.10D+00
 E= -2048.75135534676     Delta-E=       -0.000000001452 Rises=F Damp=F
 DIIS: error= 5.98D-07 at cycle   8 NSaved=   8.
 NSaved= 8 IEnMin= 8 EnMin= -2048.75135534676     IErMin= 8 ErrMin= 5.98D-07
 ErrMax= 5.98D-07  0.00D+00 EMaxC= 1.00D-01 BMatC= 3.56D-10 BMatP= 9.09D-10
 IDIUse=1 WtCom= 1.00D+00 WtEn= 0.00D+00
 Coeff-Com: -0.663D-03 0.836D-02 0.196D-01-0.171D-02-0.111D+00-0.908D-01
 Coeff-Com:  0.408D+00 0.768D+00
 Coeff:     -0.663D-03 0.836D-02 0.196D-01-0.171D-02-0.111D+00-0.908D-01
 Coeff:      0.408D+00 0.768D+00
 Gap=     0.280 Goal=   None    Shift=    0.000
 RMSDP=5.08D-08 MaxDP=3.14D-06 DE=-1.45D-09 OVMax= 1.02D-05

 Cycle  14  Pass 1  IDiag  1:
 RMSU=  2.88D-08    CP:  1.00D+00  1.06D+00  7.98D-01  1.46D+00  1.32D+00
                    CP:  1.03D+00  1.26D+00  1.04D+00
 E= -2048.75135534767     Delta-E=       -0.000000000908 Rises=F Damp=F
 DIIS: error= 1.57D-07 at cycle   9 NSaved=   9.
 NSaved= 9 IEnMin= 9 EnMin= -2048.75135534767     IErMin= 9 ErrMin= 1.57D-07
 ErrMax= 1.57D-07  0.00D+00 EMaxC= 1.00D-01 BMatC= 3.82D-11 BMatP= 3.56D-10
 IDIUse=1 WtCom= 1.00D+00 WtEn= 0.00D+00
 Coeff-Com: -0.455D-03 0.497D-02 0.120D-01 0.680D-03-0.591D-01-0.607D-01
 Coeff-Com:  0.888D-01 0.332D+00 0.682D+00
 Coeff:     -0.455D-03 0.497D-02 0.120D-01 0.680D-03-0.591D-01-0.607D-01
 Coeff:      0.888D-01 0.332D+00 0.682D+00
 Gap=     0.280 Goal=   None    Shift=    0.000
 RMSDP=1.39D-08 MaxDP=8.33D-07 DE=-9.08D-10 OVMax= 2.89D-06

 Cycle  15  Pass 1  IDiag  1:
 RMSU=  9.39D-09    CP:  1.00D+00  1.06D+00  7.98D-01  1.46D+00  1.32D+00
                    CP:  1.04D+00  1.28D+00  1.20D+00  1.09D+00
 E= -2048.75135534776     Delta-E=       -0.000000000088 Rises=F Damp=F
 DIIS: error= 6.79D-08 at cycle  10 NSaved=  10.
 NSaved=10 IEnMin=10 EnMin= -2048.75135534776     IErMin=10 ErrMin= 6.79D-08
 ErrMax= 6.79D-08  0.00D+00 EMaxC= 1.00D-01 BMatC= 4.54D-12 BMatP= 3.82D-11
 IDIUse=1 WtCom= 1.00D+00 WtEn= 0.00D+00
 Coeff-Com: -0.343D-06-0.244D-03-0.457D-03 0.170D-03 0.448D-02 0.333D-03
 Coeff-Com: -0.523D-01-0.559D-01 0.217D+00 0.887D+00
 Coeff:     -0.343D-06-0.244D-03-0.457D-03 0.170D-03 0.448D-02 0.333D-03
 Coeff:     -0.523D-01-0.559D-01 0.217D+00 0.887D+00
 Gap=     0.280 Goal=   None    Shift=    0.000
 RMSDP=7.07D-09 MaxDP=4.21D-07 DE=-8.82D-11 OVMax= 1.48D-06

 SCF Done:  E(RwB97XD) =  -2048.75135535     A.U. after   15 cycles
            NFock= 15  Conv=0.71D-08     -V/T= 2.0054
 KE= 2.037707174108D+03 PE=-1.582042221730D+04 EE= 6.214173288573D+03
 Leave Link  502 at Wed Jan 24 04:29:39 2018, MaxMem=  4294967296 cpu:           21038.2 elap:             679.7
 (Enter /share/apps/g16/l601.exe)
 Copying SCF densities to generalized density rwf, IOpCl= 0 IROHF=0.

 **********************************************************************

            Population analysis using the SCF density.

 **********************************************************************

 Orbital symmetries:
       Occupied  (A) (A) (A) (A) (A) (A) (A) (A) (A) (A) (A) (A)
                 (A) (A) (A) (A) (A) (A) (A) (A) (A) (A) (A) (A)
                 (A) (A) (A) (A) (A) (A) (A) (A) (A) (A) (A) (A)
                 (A) (A) (A) (A) (A) (A) (A) (A) (A) (A) (A) (A)
                 (A) (A) (A) (A) (A) (A) (A) (A) (A) (A) (A) (A)
                 (A) (A) (A) (A) (A) (A) (A) (A) (A) (A) (A) (A)
                 (A) (A) (A) (A) (A) (A) (A) (A) (A) (A) (A) (A)
                 (A) (A) (A) (A) (A) (A) (A) (A) (A) (A) (A) (A)
                 (A) (A) (A) (A) (A) (A) (A) (A) (A) (A) (A) (A)
                 (A) (A) (A) (A) (A) (A) (A) (A) (A) (A) (A) (A)
                 (A) (A) (A) (A) (A) (A) (A) (A) (A) (A) (A) (A)
                 (A) (A) (A) (A) (A) (A) (A) (A) (A) (A) (A) (A)
                 (A) (A) (A) (A) (A) (A) (A) (A) (A) (A)
       Virtual   (A) (A) (A) (A) (A) (A) (A) (A) (A) (A) (A) (A)
                 (A) (A) (A) (A) (A) (A) (A) (A) (A) (A) (A) (A)
                 (A) (A) (A) (A) (A) (A) (A) (A) (A) (A) (A) (A)
                 (A) (A) (A) (A) (A) (A) (A) (A) (A) (A) (A) (A)
                 (A) (A) (A) (A) (A) (A) (A) (A) (A) (A) (A) (A)
                 (A) (A) (A) (A) (A) (A) (A) (A) (A) (A) (A) (A)
                 (A) (A) (A) (A) (A) (A) (A) (A) (A) (A) (A) (A)
                 (A) (A) (A) (A) (A) (A) (A) (A) (A) (A) (A) (A)
                 (A) (A) (A) (A) (A) (A) (A) (A) (A) (A) (A) (A)
                 (A) (A) (A) (A) (A) (A) (A) (A) (A) (A) (A) (A)
                 (A) (A) (A) (A) (A) (A) (A) (A) (A) (A) (A) (A)
                 (A) (A) (A) (A) (A) (A) (A) (A) (A) (A) (A) (A)
                 (A) (A) (A) (A) (A) (A) (A) (A) (A) (A) (A) (A)
                 (A) (A) (A) (A) (A) (A) (A) (A) (A) (A) (A) (A)
                 (A) (A) (A) (A) (A) (A) (A) (A) (A) (A) (A) (A)
                 (A) (A) (A) (A) (A) (A) (A) (A) (A) (A) (A) (A)
                 (A) (A) (A) (A) (A) (A) (A) (A) (A) (A) (A) (A)
                 (A) (A) (A) (A) (A) (A) (A) (A) (A) (A) (A) (A)
                 (A) (A) (A) (A) (A) (A) (A) (A) (A) (A) (A) (A)
                 (A) (A) (A) (A) (A) (A) (A) (A) (A) (A) (A) (A)
                 (A) (A) (A) (A) (A) (A) (A) (A) (A) (A) (A) (A)
                 (A) (A) (A) (A) (A) (A) (A) (A) (A) (A) (A) (A)
                 (A) (A) (A) (A) (A) (A) (A) (A) (A) (A) (A) (A)
                 (A) (A) (A) (A) (A) (A) (A) (A) (A) (A) (A) (A)
                 (A) (A) (A) (A) (A) (A) (A) (A) (A) (A) (A) (A)
                 (A) (A) (A) (A) (A) (A) (A) (A) (A) (A) (A) (A)
                 (A) (A) (A) (A) (A) (A) (A) (A) (A) (A) (A) (A)
                 (A) (A) (A) (A) (A) (A) (A) (A) (A) (A) (A) (A)
                 (A) (A) (A) (A) (A) (A) (A) (A) (A) (A) (A) (A)
                 (A) (A) (A) (A) (A) (A) (A) (A) (A) (A) (A) (A)
                 (A) (A) (A) (A) (A) (A) (A) (A) (A) (A) (A) (A)
                 (A) (A) (A) (A) (A) (A) (A) (A) (A) (A) (A) (A)
                 (A) (A) (A) (A) (A) (A) (A) (A) (A) (A) (A) (A)
                 (A) (A) (A) (A) (A) (A) (A) (A) (A) (A) (A) (A)
                 (A) (A) (A) (A) (A) (A) (A) (A) (A) (A) (A) (A)
                 (A) (A) (A) (A) (A) (A) (A) (A) (A) (A) (A) (A)
                 (A) (A) (A) (A) (A) (A) (A) (A) (A) (A) (A) (A)
                 (A) (A) (A) (A) (A) (A) (A) (A) (A) (A) (A) (A)
                 (A) (A) (A) (A) (A) (A) (A) (A) (A) (A) (A) (A)
                 (A) (A) (A) (A) (A) (A) (A) (A) (A) (A) (A) (A)
                 (A) (A) (A) (A) (A) (A) (A) (A) (A) (A) (A) (A)
                 (A) (A) (A) (A) (A) (A) (A) (A) (A) (A) (A) (A)
                 (A) (A) (A) (A) (A) (A) (A) (A) (A) (A) (A) (A)
                 (A) (A) (A) (A) (A) (A) (A) (A) (A) (A) (A) (A)
                 (A) (A) (A) (A) (A) (A) (A) (A) (A) (A) (A) (A)
                 (A) (A) (A) (A) (A) (A) (A) (A) (A) (A) (A) (A)
                 (A) (A) (A) (A) (A) (A) (A) (A) (A) (A) (A) (A)
                 (A) (A) (A) (A) (A) (A) (A) (A) (A) (A) (A) (A)
                 (A) (A) (A) (A) (A) (A) (A)
 The electronic state is 1-A.
 Alpha  occ. eigenvalues --  -19.25555 -19.21786 -19.20410 -14.52696 -14.52180
 Alpha  occ. eigenvalues --  -14.48521 -14.48500 -14.48438 -14.47544 -14.46633
 Alpha  occ. eigenvalues --  -14.46117 -14.45710 -14.44452 -14.44450 -14.42321
 Alpha  occ. eigenvalues --  -14.41743 -14.41070 -14.40799 -14.40636 -14.40161
 Alpha  occ. eigenvalues --  -10.45172 -10.40909 -10.40172 -10.39894 -10.38228
 Alpha  occ. eigenvalues --  -10.37994 -10.37626 -10.37392 -10.35874 -10.35344
 Alpha  occ. eigenvalues --  -10.34593 -10.34191 -10.34056 -10.33772 -10.33110
 Alpha  occ. eigenvalues --  -10.33090 -10.32943 -10.32855 -10.30935 -10.30759
 Alpha  occ. eigenvalues --  -10.30699 -10.28271 -10.27829  -1.19172  -1.15410
 Alpha  occ. eigenvalues --   -1.12947  -1.12797  -1.11018  -1.10337  -1.09480
 Alpha  occ. eigenvalues --   -1.09057  -1.08258  -1.05031  -1.04888  -1.02194
 Alpha  occ. eigenvalues --   -1.01225  -1.00348  -0.99330  -0.98297  -0.97056
 Alpha  occ. eigenvalues --   -0.96663  -0.96344  -0.92586  -0.90834  -0.87832
 Alpha  occ. eigenvalues --   -0.86150  -0.83841  -0.83680  -0.83239  -0.82258
 Alpha  occ. eigenvalues --   -0.82100  -0.78646  -0.77232  -0.75064  -0.74340
 Alpha  occ. eigenvalues --   -0.73327  -0.73066  -0.72747  -0.70893  -0.70623
 Alpha  occ. eigenvalues --   -0.67090  -0.66999  -0.66261  -0.66149  -0.64494
 Alpha  occ. eigenvalues --   -0.64210  -0.63523  -0.62592  -0.62471  -0.61417
 Alpha  occ. eigenvalues --   -0.60765  -0.60475  -0.60425  -0.59579  -0.59306
 Alpha  occ. eigenvalues --   -0.59117  -0.57959  -0.56627  -0.56361  -0.56029
 Alpha  occ. eigenvalues --   -0.55745  -0.55607  -0.55342  -0.54397  -0.54071
 Alpha  occ. eigenvalues --   -0.53943  -0.53512  -0.53399  -0.53187  -0.52851
 Alpha  occ. eigenvalues --   -0.52685  -0.52082  -0.51590  -0.50536  -0.50114
 Alpha  occ. eigenvalues --   -0.49971  -0.49869  -0.49340  -0.49080  -0.48746
 Alpha  occ. eigenvalues --   -0.48591  -0.48198  -0.48041  -0.47363  -0.47127
 Alpha  occ. eigenvalues --   -0.46739  -0.45670  -0.45113  -0.44479  -0.43602
 Alpha  occ. eigenvalues --   -0.41036  -0.40877  -0.39207  -0.37840  -0.37791
 Alpha  occ. eigenvalues --   -0.37167  -0.37046  -0.36806  -0.35777  -0.34866
 Alpha  occ. eigenvalues --   -0.34601  -0.33597  -0.33325  -0.33156  -0.32948
 Alpha  occ. eigenvalues --   -0.32467  -0.32233  -0.32011  -0.31680  -0.30717
 Alpha  occ. eigenvalues --   -0.30348  -0.29979  -0.25691  -0.25000
 Alpha virt. eigenvalues --    0.03049   0.03944   0.06790   0.08044   0.08796
 Alpha virt. eigenvalues --    0.09463   0.10013   0.10206   0.11241   0.12008
 Alpha virt. eigenvalues --    0.12460   0.14186   0.14511   0.14887   0.15231
 Alpha virt. eigenvalues --    0.15817   0.15861   0.17019   0.17334   0.17655
 Alpha virt. eigenvalues --    0.18718   0.19432   0.19868   0.20557   0.20754
 Alpha virt. eigenvalues --    0.20871   0.21071   0.21179   0.21472   0.21699
 Alpha virt. eigenvalues --    0.22118   0.23398   0.23493   0.23796   0.24024
 Alpha virt. eigenvalues --    0.24134   0.24309   0.24707   0.24979   0.25067
 Alpha virt. eigenvalues --    0.25597   0.26108   0.27323   0.27727   0.28234
 Alpha virt. eigenvalues --    0.28882   0.29009   0.29760   0.30461   0.30942
 Alpha virt. eigenvalues --    0.31446   0.31854   0.32314   0.32955   0.33731
 Alpha virt. eigenvalues --    0.33853   0.34268   0.35046   0.35914   0.36053
 Alpha virt. eigenvalues --    0.36846   0.37382   0.37924   0.38853   0.39045
 Alpha virt. eigenvalues --    0.40042   0.40389   0.40728   0.41557   0.41700
 Alpha virt. eigenvalues --    0.42148   0.42818   0.43112   0.43483   0.44271
 Alpha virt. eigenvalues --    0.44574   0.44893   0.46140   0.46453   0.47288
 Alpha virt. eigenvalues --    0.47682   0.48027   0.48433   0.48653   0.49336
 Alpha virt. eigenvalues --    0.49779   0.50379   0.50437   0.50869   0.51453
 Alpha virt. eigenvalues --    0.51629   0.51697   0.52411   0.52840   0.53146
 Alpha virt. eigenvalues --    0.53399   0.54229   0.54484   0.55387   0.55711
 Alpha virt. eigenvalues --    0.56096   0.56396   0.57034   0.57520   0.57748
 Alpha virt. eigenvalues --    0.58053   0.58425   0.58984   0.59280   0.59624
 Alpha virt. eigenvalues --    0.59994   0.60446   0.60577   0.61166   0.61579
 Alpha virt. eigenvalues --    0.61962   0.62298   0.62483   0.62755   0.63003
 Alpha virt. eigenvalues --    0.63406   0.64031   0.64495   0.64756   0.65687
 Alpha virt. eigenvalues --    0.65824   0.65858   0.66300   0.66914   0.67561
 Alpha virt. eigenvalues --    0.67854   0.68214   0.68752   0.68913   0.69671
 Alpha virt. eigenvalues --    0.69902   0.70588   0.70699   0.70911   0.71805
 Alpha virt. eigenvalues --    0.72073   0.72612   0.73354   0.73784   0.74256
 Alpha virt. eigenvalues --    0.74404   0.74542   0.74986   0.75287   0.75700
 Alpha virt. eigenvalues --    0.75898   0.76371   0.76597   0.76645   0.77315
 Alpha virt. eigenvalues --    0.77638   0.77765   0.78241   0.78745   0.79110
 Alpha virt. eigenvalues --    0.79338   0.79620   0.80037   0.80257   0.80863
 Alpha virt. eigenvalues --    0.81314   0.81727   0.82405   0.83000   0.83260
 Alpha virt. eigenvalues --    0.83589   0.84000   0.84040   0.84788   0.85624
 Alpha virt. eigenvalues --    0.85788   0.86240   0.86571   0.86916   0.87276
 Alpha virt. eigenvalues --    0.87720   0.88222   0.88429   0.89448   0.90068
 Alpha virt. eigenvalues --    0.90416   0.90793   0.91336   0.91689   0.91939
 Alpha virt. eigenvalues --    0.92428   0.92746   0.93190   0.93455   0.93916
 Alpha virt. eigenvalues --    0.94338   0.95369   0.95709   0.96146   0.96561
 Alpha virt. eigenvalues --    0.97363   0.97926   0.98193   0.98327   0.98937
 Alpha virt. eigenvalues --    0.99137   0.99839   1.00278   1.00667   1.01139
 Alpha virt. eigenvalues --    1.01704   1.02043   1.02544   1.02900   1.03452
 Alpha virt. eigenvalues --    1.03624   1.03950   1.04403   1.05092   1.05258
 Alpha virt. eigenvalues --    1.05575   1.06308   1.06488   1.07064   1.07273
 Alpha virt. eigenvalues --    1.08253   1.09282   1.09736   1.10548   1.10930
 Alpha virt. eigenvalues --    1.11132   1.11845   1.12203   1.12553   1.13139
 Alpha virt. eigenvalues --    1.13585   1.13784   1.14346   1.14647   1.15500
 Alpha virt. eigenvalues --    1.16029   1.16117   1.16295   1.17219   1.17998
 Alpha virt. eigenvalues --    1.18267   1.18372   1.19103   1.19792   1.20004
 Alpha virt. eigenvalues --    1.20038   1.20316   1.21067   1.21308   1.21837
 Alpha virt. eigenvalues --    1.22097   1.22581   1.22820   1.23197   1.23312
 Alpha virt. eigenvalues --    1.23505   1.23837   1.24238   1.24825   1.25229
 Alpha virt. eigenvalues --    1.26064   1.26865   1.27551   1.27823   1.28235
 Alpha virt. eigenvalues --    1.28506   1.29029   1.30054   1.30432   1.30724
 Alpha virt. eigenvalues --    1.32124   1.32592   1.32684   1.33466   1.33927
 Alpha virt. eigenvalues --    1.34314   1.35418   1.35784   1.36510   1.36792
 Alpha virt. eigenvalues --    1.37844   1.38732   1.39321   1.39722   1.40130
 Alpha virt. eigenvalues --    1.40867   1.42202   1.42379   1.42559   1.44742
 Alpha virt. eigenvalues --    1.46010   1.46024   1.46669   1.47397   1.47850
 Alpha virt. eigenvalues --    1.48657   1.49377   1.50063   1.50545   1.50958
 Alpha virt. eigenvalues --    1.51970   1.52880   1.53106   1.53544   1.54476
 Alpha virt. eigenvalues --    1.56283   1.56325   1.56708   1.56737   1.57320
 Alpha virt. eigenvalues --    1.58017   1.58477   1.59430   1.60402   1.60883
 Alpha virt. eigenvalues --    1.61129   1.61888   1.62779   1.63160   1.64127
 Alpha virt. eigenvalues --    1.64776   1.65194   1.65686   1.65939   1.66372
 Alpha virt. eigenvalues --    1.66871   1.67587   1.67695   1.68612   1.69031
 Alpha virt. eigenvalues --    1.69435   1.70225   1.70613   1.71240   1.71622
 Alpha virt. eigenvalues --    1.71938   1.72642   1.72964   1.73084   1.73530
 Alpha virt. eigenvalues --    1.74290   1.74823   1.75002   1.75407   1.75843
 Alpha virt. eigenvalues --    1.75966   1.76317   1.76484   1.76879   1.77505
 Alpha virt. eigenvalues --    1.77676   1.78024   1.78089   1.78729   1.78750
 Alpha virt. eigenvalues --    1.79107   1.79307   1.80096   1.80251   1.80526
 Alpha virt. eigenvalues --    1.80774   1.81138   1.81207   1.81829   1.81970
 Alpha virt. eigenvalues --    1.82093   1.83082   1.83276   1.83797   1.84623
 Alpha virt. eigenvalues --    1.85028   1.85397   1.86255   1.86376   1.86653
 Alpha virt. eigenvalues --    1.87547   1.87728   1.88282   1.88731   1.89122
 Alpha virt. eigenvalues --    1.89385   1.90318   1.90847   1.91041   1.91350
 Alpha virt. eigenvalues --    1.92077   1.92457   1.93360   1.93604   1.94077
 Alpha virt. eigenvalues --    1.94614   1.95069   1.95886   1.96133   1.97489
 Alpha virt. eigenvalues --    1.98721   1.99224   1.99274   2.00658   2.01173
 Alpha virt. eigenvalues --    2.01426   2.01997   2.02971   2.03471   2.03950
 Alpha virt. eigenvalues --    2.04489   2.05340   2.05732   2.06276   2.06863
 Alpha virt. eigenvalues --    2.07621   2.08131   2.08950   2.09197   2.09417
 Alpha virt. eigenvalues --    2.10152   2.11066   2.11812   2.12613   2.13924
 Alpha virt. eigenvalues --    2.14065   2.14175   2.15293   2.16561   2.17582
 Alpha virt. eigenvalues --    2.17972   2.18710   2.19810   2.20751   2.21389
 Alpha virt. eigenvalues --    2.21603   2.22252   2.22573   2.22917   2.23541
 Alpha virt. eigenvalues --    2.24599   2.25126   2.25921   2.26257   2.26778
 Alpha virt. eigenvalues --    2.27537   2.27673   2.28949   2.29433   2.29817
 Alpha virt. eigenvalues --    2.30028   2.30658   2.31487   2.32035   2.32637
 Alpha virt. eigenvalues --    2.33053   2.33505   2.33805   2.34226   2.34673
 Alpha virt. eigenvalues --    2.35346   2.35893   2.36233   2.36817   2.37304
 Alpha virt. eigenvalues --    2.37781   2.38025   2.39243   2.39805   2.41832
 Alpha virt. eigenvalues --    2.42002   2.42568   2.42994   2.43993   2.44069
 Alpha virt. eigenvalues --    2.44287   2.45112   2.45361   2.45920   2.46519
 Alpha virt. eigenvalues --    2.47714   2.48453   2.50014   2.50427   2.51804
 Alpha virt. eigenvalues --    2.52934   2.53967   2.54764   2.55981   2.56241
 Alpha virt. eigenvalues --    2.56915   2.57869   2.58311   2.59593   2.59868
 Alpha virt. eigenvalues --    2.60905   2.61332   2.62332   2.62911   2.63186
 Alpha virt. eigenvalues --    2.64596   2.64994   2.65267   2.65676   2.65742
 Alpha virt. eigenvalues --    2.67002   2.68739   2.68846   2.69218   2.69524
 Alpha virt. eigenvalues --    2.69968   2.70740   2.71089   2.71770   2.72491
 Alpha virt. eigenvalues --    2.72763   2.74756   2.75291   2.76045   2.76200
 Alpha virt. eigenvalues --    2.76690   2.77858   2.78391   2.79131   2.79538
 Alpha virt. eigenvalues --    2.79638   2.80299   2.80491   2.80717   2.81240
 Alpha virt. eigenvalues --    2.81699   2.82447   2.82860   2.83590   2.84352
 Alpha virt. eigenvalues --    2.84789   2.85323   2.86294   2.86690   2.87115
 Alpha virt. eigenvalues --    2.88008   2.88031   2.89266   2.92628   2.94209
 Alpha virt. eigenvalues --    2.94475   2.95743   2.96891   2.97650   2.99237
 Alpha virt. eigenvalues --    2.99857   3.00889   3.02220   3.04868   3.05182
 Alpha virt. eigenvalues --    3.07360   3.09413   3.10877   3.12869   3.15183
 Alpha virt. eigenvalues --    3.15373   3.15713   3.16886   3.17843   3.20777
 Alpha virt. eigenvalues --    3.21130   3.22794   3.23721   3.24182   3.26029
 Alpha virt. eigenvalues --    3.44718   3.47008   3.48002   3.49393   3.50544
 Alpha virt. eigenvalues --    3.53534   3.54251   3.56420   3.57863   3.60272
 Alpha virt. eigenvalues --    3.63347   3.71038   3.74915
          Condensed to atoms (all electrons):
 Mulliken charges:
               1
     1  N   -0.313360
     2  C    0.181462
     3  C    0.055253
     4  N   -0.260570
     5  C    0.138537
     6  H    0.026090
     7  N   -0.294916
     8  C    0.135227
     9  H    0.010925
    10  N   -0.287737
    11  C    0.257214
    12  C    0.104913
    13  N   -0.055869
    14  H    0.110408
    15  H    0.082485
    16  H    0.024169
    17  H    0.030262
    18  H    0.027185
    19  N   -0.303847
    20  C    0.242518
    21  C    0.180597
    22  N   -0.102062
    23  H    0.111730
    24  H    0.113272
    25  N   -0.306875
    26  C    0.223804
    27  N   -0.145990
    28  H    0.123103
    29  C    0.185749
    30  O   -0.323496
    31  C   -0.012364
    32  N   -0.224440
    33  C    0.131882
    34  H    0.018541
    35  H    0.029780
    36  H    0.027738
    37  H    0.023113
    38  H    0.062418
    39  H    0.058444
    40  H    0.070530
    41  H    0.027834
    42  C   -0.113399
    43  O   -0.264990
    44  C    0.168630
    45  H    0.131565
    46  N   -0.120387
    47  O   -0.338659
    48  C    0.333361
    49  H    0.045667
    50  C    0.164943
    51  C    0.036103
    52  N   -0.280176
    53  H    0.035713
    54  H    0.037351
    55  H    0.029229
    56  H    0.123455
    57  H    0.116182
    58  N   -0.056404
    59  C    0.085385
    60  C    0.255268
    61  N   -0.277600
    62  H    0.046761
    63  C    0.157674
    64  N   -0.302439
    65  H    0.038158
    66  C    0.136031
    67  N   -0.263345
    68  C    0.022174
    69  C    0.180096
    70  N   -0.310004
 Sum of Mulliken charges =  -0.00000
 Mulliken charges with hydrogens summed into heavy atoms:
               1
     1  N   -0.313360
     2  C    0.263079
     3  C    0.055253
     4  N   -0.260570
     5  C    0.164627
     7  N   -0.294916
     8  C    0.146152
    10  N   -0.287737
    11  C    0.257214
    12  C    0.104913
    13  N    0.137024
    19  N   -0.303847
    20  C    0.242518
    21  C    0.261228
    22  N    0.122940
    25  N   -0.306875
    26  C    0.223804
    27  N   -0.022887
    29  C    0.185749
    30  O   -0.323496
    31  C   -0.012364
    32  N   -0.224440
    33  C    0.150423
    42  C   -0.085565
    43  O   -0.264990
    44  C    0.168630
    46  N    0.011179
    47  O   -0.338659
    48  C    0.333361
    50  C    0.210609
    51  C    0.227495
    52  N   -0.280176
    58  N    0.183234
    59  C    0.085385
    60  C    0.255268
    61  N   -0.277600
    63  C    0.204435
    64  N   -0.302439
    66  C    0.174189
    67  N   -0.263345
    68  C    0.022174
    69  C    0.282389
    70  N   -0.310004
 Electronic spatial extent (au):  <R**2>=          21849.7466
 Charge=             -0.0000 electrons
 Dipole moment (field-independent basis, Debye):
    X=             -8.1304    Y=              6.2229    Z=             -2.3825  Tot=             10.5121
 Quadrupole moment (field-independent basis, Debye-Ang):
   XX=           -154.9864   YY=           -219.4397   ZZ=           -255.0098
   XY=              0.3410   XZ=             -3.9506   YZ=              8.8432
 Traceless Quadrupole moment (field-independent basis, Debye-Ang):
   XX=             54.8256   YY=             -9.6277   ZZ=            -45.1978
   XY=              0.3410   XZ=             -3.9506   YZ=              8.8432
 Octapole moment (field-independent basis, Debye-Ang**2):
  XXX=             77.1172  YYY=            133.3493  ZZZ=              2.8407  XYY=            -86.5881
  XXY=             39.0830  XXZ=              7.3975  XZZ=            -45.7925  YZZ=             25.7954
  YYZ=            -52.4492  XYZ=             64.6184
 Hexadecapole moment (field-independent basis, Debye-Ang**3):
 XXXX=         -14831.9543 YYYY=          -5972.3545 ZZZZ=          -3727.7271 XXXY=           -509.0682
 XXXZ=           -216.5458 YYYX=             39.0910 YYYZ=             85.5716 ZZZX=            -19.1015
 ZZZY=             -7.6263 XXYY=          -3193.7124 XXZZ=          -3642.8835 YYZZ=          -1680.7828
 XXYZ=            -56.6382 YYXZ=            175.6583 ZZXY=            -26.7712
 N-N= 5.519790399267D+03 E-N=-1.582042221448D+04  KE= 2.037707174108D+03
 No NMR shielding tensors so no spin-rotation constants.
 Leave Link  601 at Wed Jan 24 04:29:42 2018, MaxMem=  4294967296 cpu:              74.6 elap:               2.6
 (Enter /share/apps/g16/l9999.exe)
 1\1\GINC-COMPUTE-0-3\SP\RwB97XD\CC-pVDZ\C23H27N17O3\SATYA\24-Jan-2018\
 0\\#p wb97xd/cc-pvdz sp scf=(maxcycles=20)\\Base pair stacking\\0,1\N,
 0,4.54643,0.92186,-6.85332\C,0,5.64514,1.90032,-6.96935\C,0,2.56088,-0
 .00157,-6.64797\N,0,3.46826,-1.04748,-6.7343\C,0,4.62816,-0.44929,-6.8
 5457\H,0,5.58461,-0.96438,-6.94857\N,0,0.56389,1.2381,-6.45253\C,0,1.3
 2567,2.33375,-6.53511\H,0,0.7873,3.27924,-6.48554\N,0,2.64644,2.43632,
 -6.66909\C,0,3.21066,1.21833,-6.71987\C,0,1.16155,0.02775,-6.50673\N,0
 ,0.40281,-1.06711,-6.42446\H,0,0.80256,-1.9837,-6.46016\H,0,-0.59051,-
 1.00851,-6.32439\H,0,6.12347,1.7651,-7.83715\H,0,5.27202,2.82705,-6.93
 639\H,0,6.28761,1.77441,-6.21345\N,0,2.0543,3.86081,-3.29756\C,0,0.901
 73,3.11546,-3.2335\C,0,2.11546,5.33519,-3.35365\N,0,-2.56493,2.94122,-
 3.11672\H,0,-3.26657,2.23087,-3.06829\H,0,-2.88086,3.89006,-3.1415\N,0
 ,-0.3584,3.60086,-3.2112\C,0,-1.25883,2.63611,-3.1471\N,0,-0.95085,1.2
 9779,-3.10776\H,0,-1.70475,0.62978,-3.05923\C,0,0.33864,0.77568,-3.129
 65\O,0,0.50776,-0.4493,-3.09005\C,0,1.3168,1.80006,-3.19841\N,0,2.7020
 7,1.72118,-3.23962\C,0,3.09524,2.96466,-3.2978\H,0,4.13664,3.28519,-3.
 34273\H,0,2.57257,5.6197,-4.19562\H,0,1.18782,5.70599,-3.33773\H,0,2.6
 2448,5.67956,-2.56554\H,0,-5.9115,-2.19625,-3.47099\H,0,-5.71221,-2.37
 423,-1.72936\H,0,-5.19391,-0.88947,-2.52825\H,0,-2.41748,-5.5,-3.3171\
 C,0,-2.54167,-4.42417,-3.19295\O,0,-0.22819,-3.94638,-3.40886\C,0,-1.3
 8959,-3.57653,-3.23816\H,0,-0.86871,-1.6025,-3.09604\N,0,-1.65773,-2.2
 3298,-3.07018\O,0,-3.02291,-0.45002,-2.73176\C,0,-2.8853,-1.65272,-2.8
 7041\H,0,-4.65971,-4.48859,-2.95718\C,0,-3.75223,-3.88773,-2.99962\C,0
 ,-5.27872,-1.96137,-2.62808\N,0,-3.94693,-2.53543,-2.83914\H,0,-7.2524
 6,2.34527,-5.85158\H,0,-5.90426,2.66223,-4.98904\H,0,-7.20282,1.99621,
 -4.25812\H,0,-2.49797,-3.32527,-6.40411\H,0,-4.1907,-3.53673,-6.39715\
 N,0,-3.40683,-2.92447,-6.28801\C,0,-3.56748,-1.63116,-6.00041\C,0,-4.8
 2832,0.33164,-5.532\N,0,-3.7574,1.13021,-5.39117\H,0,-1.71304,1.01524,
 -5.48049\C,0,-2.63344,0.44096,-5.57705\N,0,-2.47046,-0.85442,-5.86517\
 H,0,-7.95678,-0.47991,-5.61104\C,0,-6.86692,-0.46851,-5.64278\N,0,-6.1
 1776,-1.51396,-5.89471\C,0,-4.8229,-1.02045,-5.82756\C,0,-6.66924,2.02
 909,-5.10334\N,0,-6.15242,0.68206,-5.41385\\Version=EM64L-G16RevA.03\S
 tate=1-A\HF=-2048.7513553\RMSD=7.075e-09\Dipole=-3.9720815,1.1515792,-
 0.0319341\Quadrupole=30.2527772,-2.1091798,-28.1435974,19.4077257,-14.
 1348087,6.3686095\PG=C01 [X(C23H27N17O3)]\\@


 The best way to pay for a lovely moment is to enjoy it.
 -- Richard Bach
 Job cpu time:       0 days  6 hours  1 minutes 24.6 seconds.
 Elapsed time:       0 days  0 hours 11 minutes 40.5 seconds.
 File lengths (MBytes):  RWF=    298 Int=      0 D2E=      0 Chk=     33 Scr=      1
 Normal termination of Gaussian 16 at Wed Jan 24 04:29:42 2018.
