 Entering Gaussian System, Link 0=g16
 Input=str45.20.0.5.com
 Output=str45.20.0.5.log
 Initial command:
 /share/apps/g16/l1.exe "/state/partition1/scr/Gau-25396.inp" -scrdir="/state/partition1/scr/"
 Entering Link 1 = /share/apps/g16/l1.exe PID=     25397.
  
 Copyright (c) 1988,1990,1992,1993,1995,1998,2003,2009,2016,
            Gaussian, Inc.  All Rights Reserved.
  
 This is part of the Gaussian(R) 16 program.  It is based on
 the Gaussian(R) 09 system (copyright 2009, Gaussian, Inc.),
 the Gaussian(R) 03 system (copyright 2003, Gaussian, Inc.),
 the Gaussian(R) 98 system (copyright 1998, Gaussian, Inc.),
 the Gaussian(R) 94 system (copyright 1995, Gaussian, Inc.),
 the Gaussian 92(TM) system (copyright 1992, Gaussian, Inc.),
 the Gaussian 90(TM) system (copyright 1990, Gaussian, Inc.),
 the Gaussian 88(TM) system (copyright 1988, Gaussian, Inc.),
 the Gaussian 86(TM) system (copyright 1986, Carnegie Mellon
 University), and the Gaussian 82(TM) system (copyright 1983,
 Carnegie Mellon University). Gaussian is a federally registered
 trademark of Gaussian, Inc.
  
 This software contains proprietary and confidential information,
 including trade secrets, belonging to Gaussian, Inc.
  
 This software is provided under written license and may be
 used, copied, transmitted, or stored only in accord with that
 written license.
  
 The following legend is applicable only to US Government
 contracts under FAR:
  
                    RESTRICTED RIGHTS LEGEND
  
 Use, reproduction and disclosure by the US Government is
 subject to restrictions as set forth in subparagraphs (a)
 and (c) of the Commercial Computer Software - Restricted
 Rights clause in FAR 52.227-19.
  
 Gaussian, Inc.
 340 Quinnipiac St., Bldg. 40, Wallingford CT 06492
  
  
 ---------------------------------------------------------------
 Warning -- This program may not be used in any manner that
 competes with the business of Gaussian, Inc. or will provide
 assistance to any competitor of Gaussian, Inc.  The licensee
 of this program is prohibited from giving any competitor of
 Gaussian, Inc. access to this program.  By using this program,
 the user acknowledges that Gaussian, Inc. is engaged in the
 business of creating and licensing software in the field of
 computational chemistry and represents and warrants to the
 licensee that it is not a competitor of Gaussian, Inc. and that
 it will not use this program in any manner prohibited above.
 ---------------------------------------------------------------
  

 Cite this work as:
 Gaussian 16, Revision A.03,
 M. J. Frisch, G. W. Trucks, H. B. Schlegel, G. E. Scuseria, 
 M. A. Robb, J. R. Cheeseman, G. Scalmani, V. Barone, 
 G. A. Petersson, H. Nakatsuji, X. Li, M. Caricato, A. V. Marenich, 
 J. Bloino, B. G. Janesko, R. Gomperts, B. Mennucci, H. P. Hratchian, 
 J. V. Ortiz, A. F. Izmaylov, J. L. Sonnenberg, D. Williams-Young, 
 F. Ding, F. Lipparini, F. Egidi, J. Goings, B. Peng, A. Petrone, 
 T. Henderson, D. Ranasinghe, V. G. Zakrzewski, J. Gao, N. Rega, 
 G. Zheng, W. Liang, M. Hada, M. Ehara, K. Toyota, R. Fukuda, 
 J. Hasegawa, M. Ishida, T. Nakajima, Y. Honda, O. Kitao, H. Nakai, 
 T. Vreven, K. Throssell, J. A. Montgomery, Jr., J. E. Peralta, 
 F. Ogliaro, M. J. Bearpark, J. J. Heyd, E. N. Brothers, K. N. Kudin, 
 V. N. Staroverov, T. A. Keith, R. Kobayashi, J. Normand, 
 K. Raghavachari, A. P. Rendell, J. C. Burant, S. S. Iyengar, 
 J. Tomasi, M. Cossi, J. M. Millam, M. Klene, C. Adamo, R. Cammi, 
 J. W. Ochterski, R. L. Martin, K. Morokuma, O. Farkas, 
 J. B. Foresman, and D. J. Fox, Gaussian, Inc., Wallingford CT, 2016.
 
 ******************************************
 Gaussian 16:  EM64L-G16RevA.03 25-Dec-2016
                24-Jan-2018 
 ******************************************
 %nprocshared=32
 Will use up to   32 processors via shared memory.
 %mem=32GB
 %chk=allatoms_t.chk
 ---------------------------------------
 #p wb97xd/cc-pvdz sp scf=(maxcycles=20)
 ---------------------------------------
 1/38=1,172=1/1;
 2/12=2,17=6,18=5,40=1/2;
 3/5=16,11=2,25=1,30=1,74=-58/1,2,3;
 4//1;
 5/5=2,7=20,38=5/2;
 6/7=2,8=2,9=2,10=2,28=1/1;
 99/5=1,9=1/99;
 Leave Link    1 at Wed Jan 24 00:24:34 2018, MaxMem=  4294967296 cpu:               2.7 elap:               0.1
 (Enter /share/apps/g16/l101.exe)
 ------------------
 Base pair stacking
 ------------------
 Symbolic Z-matrix:
 Charge =  0 Multiplicity = 1
 N                     6.65612  -0.06232  -4.4075 
 C                     7.84219   0.81586  -4.41446 
 C                     4.66788  -0.92023  -4.79248 
 N                     5.30685  -1.79505  -3.92581 
 C                     6.47911  -1.24318  -3.72856 
 H                     7.26052  -1.65838  -3.09141 
 N                     3.06651   0.08838  -6.20006 
 C                     3.96551   1.05735  -6.40122 
 H                     3.64608   1.85684  -7.06834 
 N                     5.19407   1.18642  -5.90435 
 C                     5.48711   0.15254  -5.09833 
 C                     3.39159  -0.93787  -5.38384 
 N                     2.49553  -1.90608  -5.1818 
 H                     2.6933   -2.68487  -4.58549 
 H                     1.59648  -1.88599  -5.61935 
 H                     8.63229   0.30848  -4.75868 
 H                     7.67067   1.60422  -5.00454 
 H                     8.03069   1.13227  -3.48475 
 N                     2.80222   3.83742  -3.06011 
 C                     1.67662   3.08941  -3.30822 
 C                     2.93585   5.28694  -3.30857 
 N                    -1.60246   2.87114  -4.43148 
 H                    -2.3009    2.16364  -4.53574 
 H                    -1.8516    3.79915  -4.70976 
 N                     0.51293   3.54924  -3.81658 
 C                    -0.38613   2.58908  -3.94068 
 N                    -0.16453   1.27827  -3.59403 
 H                    -0.91009   0.61166  -3.72342 
 C                     1.02496   0.78276  -3.06919 
 O                     1.1214   -0.41857  -2.78948 
 C                     2.00041   1.80257  -2.93007 
 N                     3.30308   1.74387  -2.45414 
 C                     3.738     2.97102  -2.54987 
 H                     4.73686   3.30011  -2.26134 
 H                     3.67656   5.44829  -3.95981 
 H                     2.0799    5.63868  -3.68526 
 H                     3.13888   5.75663  -2.45009 
 H                    -4.78945  -2.32114  -5.20731 
 H                    -5.23916  -2.22812  -3.50621 
 H                    -4.41107  -0.87304  -4.27394 
 H                    -1.71559  -5.49797  -3.30844 
 C                    -1.83497  -4.41826  -3.39904 
 O                     0.41695  -3.93638  -2.83007 
 C                    -0.71272  -3.56631  -3.14895 
 H                    -0.20315  -1.58439  -3.12262 
 N                    -0.97181  -2.21801  -3.29118 
 O                    -2.29785  -0.42978  -3.73952 
 C                    -2.16559  -1.63683  -3.63855 
 H                    -3.89614  -4.48504  -3.94029 
 C                    -3.01225  -3.88103  -3.73965 
 C                    -4.49506  -1.94902  -4.2373 
 N                    -3.19987  -2.52389  -3.86346 
 H                    -3.80513   0.71347  -10.08235 
 H                    -2.97168   1.52284  -8.93676 
 H                    -4.55736   1.20289  -8.71925 
 H                    -0.44554  -4.08454  -5.52627 
 H                    -1.95892  -4.40062  -6.2473 
 N                    -1.21646  -3.75352  -6.07057 
 C                    -1.25375  -2.50487  -6.54031 
 C                    -2.20932  -0.67606  -7.72525 
 N                    -1.19805   0.17112  -7.47222 
 H                     0.59971   0.19229  -6.48823 
 C                    -0.26036  -0.42673  -6.73995 
 N                    -0.22117  -1.67724  -6.26849 
 H                    -5.04037  -1.66985  -8.92929 
 C                    -4.07608  -1.58779  -8.42694 
 N                    -3.49852  -2.55681  -7.75978 
 C                    -2.314    -1.99204  -7.30959 
 C                    -3.69913   0.85663  -9.09834 
 N                    -3.35136  -0.42113  -8.44688 
 
 ITRead=  0  0  0  0  0  0  0  0  0  0  0  0  0  0  0  0  0  0  0  0
 ITRead=  0  0  0  0  0  0  0  0  0  0  0  0  0  0  0  0  0  0  0  0
 ITRead=  0  0  0  0  0  0  0  0  0  0  0  0  0  0  0  0  0  0  0  0
 ITRead=  0  0  0  0  0  0  0  0  0  0
 MicOpt= -1 -1 -1 -1 -1 -1 -1 -1 -1 -1 -1 -1 -1 -1 -1 -1 -1 -1 -1 -1
 MicOpt= -1 -1 -1 -1 -1 -1 -1 -1 -1 -1 -1 -1 -1 -1 -1 -1 -1 -1 -1 -1
 MicOpt= -1 -1 -1 -1 -1 -1 -1 -1 -1 -1 -1 -1 -1 -1 -1 -1 -1 -1 -1 -1
 MicOpt= -1 -1 -1 -1 -1 -1 -1 -1 -1 -1
 NAtoms=     70 NQM=       70 NQMF=       0 NMMI=      0 NMMIF=      0
                NMic=       0 NMicF=      0.
                    Isotopes and Nuclear Properties:
 (Nuclear quadrupole moments (NQMom) in fm**2, nuclear magnetic moments (NMagM)
  in nuclear magnetons)

  Atom         1           2           3           4           5           6           7           8           9          10
 IAtWgt=          14          12          12          14          12           1          14          12           1          14
 AtmWgt=  14.0030740  12.0000000  12.0000000  14.0030740  12.0000000   1.0078250  14.0030740  12.0000000   1.0078250  14.0030740
 NucSpn=           2           0           0           2           0           1           2           0           1           2
 AtZEff=  -0.0000000  -0.0000000  -0.0000000  -0.0000000  -0.0000000  -0.0000000  -0.0000000  -0.0000000  -0.0000000  -0.0000000
 NQMom=    2.0440000   0.0000000   0.0000000   2.0440000   0.0000000   0.0000000   2.0440000   0.0000000   0.0000000   2.0440000
 NMagM=    0.4037610   0.0000000   0.0000000   0.4037610   0.0000000   2.7928460   0.4037610   0.0000000   2.7928460   0.4037610
 AtZNuc=   7.0000000   6.0000000   6.0000000   7.0000000   6.0000000   1.0000000   7.0000000   6.0000000   1.0000000   7.0000000

  Atom        11          12          13          14          15          16          17          18          19          20
 IAtWgt=          12          12          14           1           1           1           1           1          14          12
 AtmWgt=  12.0000000  12.0000000  14.0030740   1.0078250   1.0078250   1.0078250   1.0078250   1.0078250  14.0030740  12.0000000
 NucSpn=           0           0           2           1           1           1           1           1           2           0
 AtZEff=  -0.0000000  -0.0000000  -0.0000000  -0.0000000  -0.0000000  -0.0000000  -0.0000000  -0.0000000  -0.0000000  -0.0000000
 NQMom=    0.0000000   0.0000000   2.0440000   0.0000000   0.0000000   0.0000000   0.0000000   0.0000000   2.0440000   0.0000000
 NMagM=    0.0000000   0.0000000   0.4037610   2.7928460   2.7928460   2.7928460   2.7928460   2.7928460   0.4037610   0.0000000
 AtZNuc=   6.0000000   6.0000000   7.0000000   1.0000000   1.0000000   1.0000000   1.0000000   1.0000000   7.0000000   6.0000000

  Atom        21          22          23          24          25          26          27          28          29          30
 IAtWgt=          12          14           1           1          14          12          14           1          12          16
 AtmWgt=  12.0000000  14.0030740   1.0078250   1.0078250  14.0030740  12.0000000  14.0030740   1.0078250  12.0000000  15.9949146
 NucSpn=           0           2           1           1           2           0           2           1           0           0
 AtZEff=  -0.0000000  -0.0000000  -0.0000000  -0.0000000  -0.0000000  -0.0000000  -0.0000000  -0.0000000  -0.0000000  -0.0000000
 NQMom=    0.0000000   2.0440000   0.0000000   0.0000000   2.0440000   0.0000000   2.0440000   0.0000000   0.0000000   0.0000000
 NMagM=    0.0000000   0.4037610   2.7928460   2.7928460   0.4037610   0.0000000   0.4037610   2.7928460   0.0000000   0.0000000
 AtZNuc=   6.0000000   7.0000000   1.0000000   1.0000000   7.0000000   6.0000000   7.0000000   1.0000000   6.0000000   8.0000000

  Atom        31          32          33          34          35          36          37          38          39          40
 IAtWgt=          12          14          12           1           1           1           1           1           1           1
 AtmWgt=  12.0000000  14.0030740  12.0000000   1.0078250   1.0078250   1.0078250   1.0078250   1.0078250   1.0078250   1.0078250
 NucSpn=           0           2           0           1           1           1           1           1           1           1
 AtZEff=  -0.0000000  -0.0000000  -0.0000000  -0.0000000  -0.0000000  -0.0000000  -0.0000000  -0.0000000  -0.0000000  -0.0000000
 NQMom=    0.0000000   2.0440000   0.0000000   0.0000000   0.0000000   0.0000000   0.0000000   0.0000000   0.0000000   0.0000000
 NMagM=    0.0000000   0.4037610   0.0000000   2.7928460   2.7928460   2.7928460   2.7928460   2.7928460   2.7928460   2.7928460
 AtZNuc=   6.0000000   7.0000000   6.0000000   1.0000000   1.0000000   1.0000000   1.0000000   1.0000000   1.0000000   1.0000000

  Atom        41          42          43          44          45          46          47          48          49          50
 IAtWgt=           1          12          16          12           1          14          16          12           1          12
 AtmWgt=   1.0078250  12.0000000  15.9949146  12.0000000   1.0078250  14.0030740  15.9949146  12.0000000   1.0078250  12.0000000
 NucSpn=           1           0           0           0           1           2           0           0           1           0
 AtZEff=  -0.0000000  -0.0000000  -0.0000000  -0.0000000  -0.0000000  -0.0000000  -0.0000000  -0.0000000  -0.0000000  -0.0000000
 NQMom=    0.0000000   0.0000000   0.0000000   0.0000000   0.0000000   2.0440000   0.0000000   0.0000000   0.0000000   0.0000000
 NMagM=    2.7928460   0.0000000   0.0000000   0.0000000   2.7928460   0.4037610   0.0000000   0.0000000   2.7928460   0.0000000
 AtZNuc=   1.0000000   6.0000000   8.0000000   6.0000000   1.0000000   7.0000000   8.0000000   6.0000000   1.0000000   6.0000000

  Atom        51          52          53          54          55          56          57          58          59          60
 IAtWgt=          12          14           1           1           1           1           1          14          12          12
 AtmWgt=  12.0000000  14.0030740   1.0078250   1.0078250   1.0078250   1.0078250   1.0078250  14.0030740  12.0000000  12.0000000
 NucSpn=           0           2           1           1           1           1           1           2           0           0
 AtZEff=  -0.0000000  -0.0000000  -0.0000000  -0.0000000  -0.0000000  -0.0000000  -0.0000000  -0.0000000  -0.0000000  -0.0000000
 NQMom=    0.0000000   2.0440000   0.0000000   0.0000000   0.0000000   0.0000000   0.0000000   2.0440000   0.0000000   0.0000000
 NMagM=    0.0000000   0.4037610   2.7928460   2.7928460   2.7928460   2.7928460   2.7928460   0.4037610   0.0000000   0.0000000
 AtZNuc=   6.0000000   7.0000000   1.0000000   1.0000000   1.0000000   1.0000000   1.0000000   7.0000000   6.0000000   6.0000000

  Atom        61          62          63          64          65          66          67          68          69          70
 IAtWgt=          14           1          12          14           1          12          14          12          12          14
 AtmWgt=  14.0030740   1.0078250  12.0000000  14.0030740   1.0078250  12.0000000  14.0030740  12.0000000  12.0000000  14.0030740
 NucSpn=           2           1           0           2           1           0           2           0           0           2
 AtZEff=  -0.0000000  -0.0000000  -0.0000000  -0.0000000  -0.0000000  -0.0000000  -0.0000000  -0.0000000  -0.0000000  -0.0000000
 NQMom=    2.0440000   0.0000000   0.0000000   2.0440000   0.0000000   0.0000000   2.0440000   0.0000000   0.0000000   2.0440000
 NMagM=    0.4037610   2.7928460   0.0000000   0.4037610   2.7928460   0.0000000   0.4037610   0.0000000   0.0000000   0.4037610
 AtZNuc=   7.0000000   1.0000000   6.0000000   7.0000000   1.0000000   6.0000000   7.0000000   6.0000000   6.0000000   7.0000000
 Leave Link  101 at Wed Jan 24 00:24:34 2018, MaxMem=  4294967296 cpu:               7.6 elap:               0.3
 (Enter /share/apps/g16/l202.exe)
 Stoichiometry    C23H27N17O3
 Framework group  C1[X(C23H27N17O3)]
 Deg. of freedom   204
 Full point group                 C1      NOp   1
 Largest Abelian subgroup         C1      NOp   1
 Largest concise Abelian subgroup C1      NOp   1
                         Standard orientation:                         
 ---------------------------------------------------------------------
 Center     Atomic      Atomic             Coordinates (Angstroms)
 Number     Number       Type             X           Y           Z
 ---------------------------------------------------------------------
      1          7           0       -5.578024   -1.993210    1.082641
      2          6           0       -6.968672   -1.605516    1.388912
      3          6           0       -3.382809   -2.036658    0.954333
      4          7           0       -3.833594   -3.158701    0.274245
      5          6           0       -5.138081   -3.087618    0.378762
      6          1           0       -5.834279   -3.813417   -0.042517
      7          7           0       -1.990985   -0.393517    1.916557
      8          6           0       -3.112200    0.199854    2.338883
      9          1           0       -2.967019    1.118362    2.905922
     10          7           0       -4.379873   -0.169283    2.166719
     11          6           0       -4.446551   -1.308556    1.458158
     12          6           0       -2.091666   -1.538207    1.206185
     13          7           0       -0.973581   -2.132013    0.783747
     14          1           0       -1.000643   -2.980910    0.254735
     15          1           0       -0.071269   -1.748788    0.981528
     16          1           0       -7.408944   -2.329917    1.919557
     17          1           0       -6.970206   -0.757781    1.918504
     18          1           0       -7.473121   -1.465220    0.536940
     19          7           0       -3.883493    2.893090   -1.182002
     20          6           0       -2.535997    2.627801   -1.225944
     21          6           0       -4.485134    4.212977   -0.905189
     22          7           0        0.753049    3.711563   -0.962593
     23          1           0        1.668168    3.316529   -1.038423
     24          1           0        0.696348    4.688293   -0.754035
     25          7           0       -1.543167    3.521142   -1.025246
     26          6           0       -0.349145    2.965828   -1.132735
     27          7           0       -0.141163    1.637483   -1.415116
     28          1           0        0.806928    1.299709   -1.478377
     29          6           0       -1.147734    0.700206   -1.625354
     30          8           0       -0.852450   -0.475223   -1.874164
     31          6           0       -2.436089    1.281937   -1.513106
     32          7           0       -3.695519    0.713712   -1.646747
     33          6           0       -4.520680    1.704480   -1.442528
     34          1           0       -5.607813    1.622992   -1.470336
     35          1           0       -5.058262    4.155229   -0.088496
     36          1           0       -3.759244    4.882867   -0.754863
     37          1           0       -5.043053    4.496828   -1.684274
     38          1           0        5.730135    0.113829   -1.021868
     39          1           0        5.701764    0.206278   -2.781209
     40          1           0        4.632924    1.235593   -1.827545
     41          1           0        3.708198   -4.118068   -2.093964
     42          6           0        3.434594   -3.064596   -2.034195
     43          8           0        1.099544   -3.482178   -2.018476
     44          6           0        2.050945   -2.701814   -1.992813
     45          1           0        0.849178   -1.048687   -1.886560
     46          7           0        1.814891   -1.343911   -1.917645
     47          8           0        2.444907    0.835388   -1.813289
     48          6           0        2.751931   -0.341867   -1.880103
     49          1           0        5.437282   -2.333135   -2.028052
     50          6           0        4.371598   -2.109916   -1.999137
     51          6           0        5.100415    0.263921   -1.886150
     52          7           0        4.063754   -0.771290   -1.923833
     53          1           0        4.855778    3.022580    3.949895
     54          1           0        3.538041    3.367850    3.051869
     55          1           0        5.030545    3.623116    2.442502
     56          1           0        2.559655   -3.060960    0.374427
     57          1           0        4.205178   -2.742036    0.691683
     58          7           0        3.256069   -2.425596    0.708306
     59          6           0        2.934461   -1.210149    1.156000
     60          6           0        3.388812    0.940750    2.066463
     61          7           0        2.105931    1.338882    2.077119
     62          1           0        0.253317    0.619497    1.576188
     63          6           0        1.315136    0.378441    1.602669
     64          7           0        1.635327   -0.839576    1.153784
     65          1           0        6.583080    1.150500    2.519047
     66          6           0        5.568990    0.832591    2.275120
     67          7           0        5.255074   -0.336406    1.772546
     68          6           0        3.875644   -0.280993    1.635334
     69          6           0        4.477242    3.026868    3.024316
     70          7           0        4.488341    1.655688    2.478643
 ---------------------------------------------------------------------
 Rotational constants (GHZ):           0.1214800           0.0565831           0.0515659
 Leave Link  202 at Wed Jan 24 00:24:35 2018, MaxMem=  4294967296 cpu:               0.3 elap:               0.0
 (Enter /share/apps/g16/l301.exe)
 Standard basis: CC-pVDZ (5D, 7F)
 Ernie: Thresh=  0.10000D-02 Tol=  0.10000D-05 Strict=F.
 Ernie:  86 primitive shells out of 1081 were deleted.
 There are   780 symmetry adapted cartesian basis functions of A   symmetry.
 There are   737 symmetry adapted basis functions of A   symmetry.
   737 basis functions,  1608 primitive gaussians,   780 cartesian basis functions
   154 alpha electrons      154 beta electrons
       nuclear repulsion energy      5442.2036795913 Hartrees.
 IExCor= 4639 DFT=T Ex+Corr=wB97XD ExCW=0 ScaHFX=  1.000000
 ScaDFX=  1.000000  1.000000  1.000000  1.000000 ScalE2=  1.000000  1.000000
 IRadAn=      5 IRanWt=     -1 IRanGd=            0 ICorTp=0 IEmpDi=121
 HFx  wShort=  0.000000 wLong=  0.200000 cFull=  0.222036 cShort=  0.000000 cLong=  0.777964
 DFx  wShort=  0.000000 wLong=  0.200000 cFull=  0.000000 cShort=  0.000000 cLong=  1.000000
 NAtoms=   70 NActive=   70 NUniq=   70 SFac= 1.00D+00 NAtFMM=   60 NAOKFM=T Big=T
 Integral buffers will be    131072 words long.
 Raffenetti 2 integral format.
 Two-electron integral symmetry is turned on.
 R6Disp:  Grimme-D2 Dispersion energy=       -0.0655070318 Hartrees.
 Nuclear repulsion after empirical dispersion term =     5442.1381725595 Hartrees.
 Leave Link  301 at Wed Jan 24 00:24:35 2018, MaxMem=  4294967296 cpu:               2.1 elap:               0.1
 (Enter /share/apps/g16/l302.exe)
 NPDir=0 NMtPBC=     1 NCelOv=     1 NCel=       1 NClECP=     1 NCelD=      1
         NCelK=      1 NCelE2=     1 NClLst=     1 CellRange=     0.0.
 One-electron integrals computed using PRISM.
 One-electron integral symmetry used in STVInt
 NBasis=   737 RedAO= T EigKep=  6.83D-04  NBF=   737
 NBsUse=   737 1.00D-06 EigRej= -1.00D+00 NBFU=   737
 Precomputing XC quadrature grid using
 IXCGrd= 4 IRadAn=           5 IRanWt=          -1 IRanGd=           0 AccXCQ= 0.00D+00.
 Generated NRdTot=       0 NPtTot=           0 NUsed=           0 NTot=          32
 NSgBfM=   762   759   762   762   762 MxSgAt=    70 MxSgA2=    70.
 Leave Link  302 at Wed Jan 24 00:24:39 2018, MaxMem=  4294967296 cpu:             140.9 elap:               4.5
 (Enter /share/apps/g16/l303.exe)
 DipDrv:  MaxL=1.
 Leave Link  303 at Wed Jan 24 00:24:40 2018, MaxMem=  4294967296 cpu:              12.3 elap:               0.4
 (Enter /share/apps/g16/l401.exe)
 ExpMin= 1.22D-01 ExpMax= 1.17D+04 ExpMxC= 4.01D+02 IAcc=3 IRadAn=         5 AccDes= 0.00D+00
 Harris functional with IExCor= 4639 and IRadAn=       5 diagonalized for initial guess.
 HarFok:  IExCor= 4639 AccDes= 0.00D+00 IRadAn=         5 IDoV= 1 UseB2=F ITyADJ=14
 ICtDFT=  3500011 ScaDFX=  1.000000  1.000000  1.000000  1.000000
 FoFCou: FMM=F IPFlag=           0 FMFlag=      100000 FMFlg1=        2001
         NFxFlg=           0 DoJE=T BraDBF=F KetDBF=T FulRan=T
         wScrn=  0.000000 ICntrl=       500 IOpCl=  0 I1Cent=   200000004 NGrid=           0
         NMat0=    1 NMatS0=      1 NMatT0=    0 NMatD0=    1 NMtDS0=    0 NMtDT0=    0
 Petite list used in FoFCou.
 Harris En= -1963.87902062792    
 JPrj=0 DoOrth=F DoCkMO=F.
 Leave Link  401 at Wed Jan 24 00:24:52 2018, MaxMem=  4294967296 cpu:             389.6 elap:              12.2
 (Enter /share/apps/g16/l502.exe)
 Integral symmetry usage will be decided dynamically.
 Closed shell SCF:
 Using DIIS extrapolation, IDIIS=  1040.
 NGot=  4294967296 LenX=  4293717438 LenY=  4293108258
 Requested convergence on RMS density matrix=1.00D-08 within  20 cycles.
 Requested convergence on MAX density matrix=1.00D-06.
 Requested convergence on             energy=1.00D-06.
 No special actions if energy rises.
 Fock matrices will be formed incrementally for  20 cycles.
 Integral accuracy reduced to 1.0D-05 until final iterations.

 Cycle   1  Pass 0  IDiag  1:
 FoFJK:  IHMeth= 1 ICntrl=       0 DoSepK=T KAlg= 0 I1Cent=           0 FoldK=F
 IRaf=         1 NMat=       1 IRICut=       1 DoRegI=T DoRafI=F ISym2E= 0 IDoP0=0 IntGTp=1.
 FoFCou: FMM=T IPFlag=           0 FMFlag=      100000 FMFlg1=        2001
         NFxFlg=           0 DoJE=T BraDBF=F KetDBF=F FulRan=T
         wScrn=  0.000000 ICntrl=       500 IOpCl=  0 I1Cent=           0 NGrid=           0
         NMat0=    1 NMatS0=      1 NMatT0=    0 NMatD0=    1 NMtDS0=    0 NMtDT0=    0
 Symmetry not used in FoFCou.
 FMM levels:  10  Number of levels for PrismC:   9
 E= -2048.30923634318    
 DIIS: error= 2.70D-02 at cycle   1 NSaved=   1.
 NSaved= 1 IEnMin= 1 EnMin= -2048.30923634318     IErMin= 1 ErrMin= 2.70D-02
 ErrMax= 2.70D-02  0.00D+00 EMaxC= 1.00D-01 BMatC= 8.32D-01 BMatP= 8.32D-01
 IDIUse=3 WtCom= 7.30D-01 WtEn= 2.70D-01
 Coeff-Com:  0.100D+01
 Coeff-En:   0.100D+01
 Coeff:      0.100D+01
 Gap=     0.248 Goal=   None    Shift=    0.000
 GapD=    0.248 DampG=1.000 DampE=0.500 DampFc=0.5000 IDamp=-1.
 Damping current iteration by 5.00D-01
 RMSDP=1.55D-03 MaxDP=1.32D-01              OVMax= 1.54D-01

 Cycle   2  Pass 0  IDiag  1:
 RMSU=  7.76D-04    CP:  9.98D-01
 E= -2048.50692135283     Delta-E=       -0.197685009645 Rises=F Damp=T
 DIIS: error= 1.51D-02 at cycle   2 NSaved=   2.
 NSaved= 2 IEnMin= 2 EnMin= -2048.50692135283     IErMin= 2 ErrMin= 1.51D-02
 ErrMax= 1.51D-02  0.00D+00 EMaxC= 1.00D-01 BMatC= 1.44D-01 BMatP= 8.32D-01
 IDIUse=3 WtCom= 8.49D-01 WtEn= 1.51D-01
 Coeff-Com: -0.202D+00 0.120D+01
 Coeff-En:   0.000D+00 0.100D+01
 Coeff:     -0.172D+00 0.117D+01
 Gap=     0.344 Goal=   None    Shift=    0.000
 RMSDP=5.75D-04 MaxDP=3.51D-02 DE=-1.98D-01 OVMax= 1.45D-01

 Cycle   3  Pass 0  IDiag  1:
 RMSU=  5.62D-04    CP:  9.94D-01  1.15D+00
 E= -2048.68841328383     Delta-E=       -0.181491930999 Rises=F Damp=F
 DIIS: error= 7.78D-03 at cycle   3 NSaved=   3.
 NSaved= 3 IEnMin= 3 EnMin= -2048.68841328383     IErMin= 3 ErrMin= 7.78D-03
 ErrMax= 7.78D-03  0.00D+00 EMaxC= 1.00D-01 BMatC= 5.94D-02 BMatP= 1.44D-01
 IDIUse=3 WtCom= 9.22D-01 WtEn= 7.78D-02
 Coeff-Com: -0.228D+00 0.541D+00 0.688D+00
 Coeff-En:   0.000D+00 0.000D+00 0.100D+01
 Coeff:     -0.211D+00 0.499D+00 0.712D+00
 Gap=     0.267 Goal=   None    Shift=    0.000
 RMSDP=3.43D-04 MaxDP=3.44D-02 DE=-1.81D-01 OVMax= 6.87D-02

 Cycle   4  Pass 0  IDiag  1:
 RMSU=  1.98D-04    CP:  9.95D-01  1.42D+00  6.80D-01
 E= -2048.73287313952     Delta-E=       -0.044459855698 Rises=F Damp=F
 DIIS: error= 3.13D-03 at cycle   4 NSaved=   4.
 NSaved= 4 IEnMin= 4 EnMin= -2048.73287313952     IErMin= 4 ErrMin= 3.13D-03
 ErrMax= 3.13D-03  0.00D+00 EMaxC= 1.00D-01 BMatC= 8.90D-03 BMatP= 5.94D-02
 IDIUse=3 WtCom= 9.69D-01 WtEn= 3.13D-02
 Coeff-Com: -0.938D-01 0.182D+00 0.381D+00 0.531D+00
 Coeff-En:   0.000D+00 0.000D+00 0.667D-01 0.933D+00
 Coeff:     -0.909D-01 0.176D+00 0.371D+00 0.544D+00
 Gap=     0.274 Goal=   None    Shift=    0.000
 RMSDP=1.24D-04 MaxDP=1.23D-02 DE=-4.45D-02 OVMax= 1.34D-02

 Cycle   5  Pass 0  IDiag  1:
 RMSU=  6.22D-05    CP:  9.94D-01  1.40D+00  8.11D-01  6.20D-01
 E= -2048.74006738378     Delta-E=       -0.007194244252 Rises=F Damp=F
 DIIS: error= 6.47D-04 at cycle   5 NSaved=   5.
 NSaved= 5 IEnMin= 5 EnMin= -2048.74006738378     IErMin= 5 ErrMin= 6.47D-04
 ErrMax= 6.47D-04  0.00D+00 EMaxC= 1.00D-01 BMatC= 3.01D-04 BMatP= 8.90D-03
 IDIUse=3 WtCom= 9.94D-01 WtEn= 6.47D-03
 Coeff-Com: -0.242D-01 0.414D-01 0.123D+00 0.244D+00 0.616D+00
 Coeff-En:   0.000D+00 0.000D+00 0.000D+00 0.000D+00 0.100D+01
 Coeff:     -0.241D-01 0.411D-01 0.122D+00 0.242D+00 0.619D+00
 Gap=     0.273 Goal=   None    Shift=    0.000
 RMSDP=2.55D-05 MaxDP=2.26D-03 DE=-7.19D-03 OVMax= 2.95D-03

 Failed to achieve initial convergence to 1.0D-08 in  6 cycles.
 Switch to full accuracy anyway.
 Cycle   6  Pass 1  IDiag  1:
 E= -2048.74035950424     Delta-E=       -0.000292120464 Rises=F Damp=F
 DIIS: error= 3.17D-04 at cycle   1 NSaved=   1.
 NSaved= 1 IEnMin= 1 EnMin= -2048.74035950424     IErMin= 1 ErrMin= 3.17D-04
 ErrMax= 3.17D-04  0.00D+00 EMaxC= 1.00D-01 BMatC= 7.57D-05 BMatP= 7.57D-05
 IDIUse=3 WtCom= 9.97D-01 WtEn= 3.17D-03
 Coeff-Com:  0.100D+01
 Coeff-En:   0.100D+01
 Coeff:      0.100D+01
 Gap=     0.274 Goal=   None    Shift=    0.000
 RMSDP=2.55D-05 MaxDP=2.26D-03 DE=-2.92D-04 OVMax= 1.84D-03

 Cycle   7  Pass 1  IDiag  1:
 RMSU=  1.19D-04    CP:  1.00D+00
 E= -2048.74041540013     Delta-E=       -0.000055895890 Rises=F Damp=F
 DIIS: error= 2.92D-04 at cycle   2 NSaved=   2.
 NSaved= 2 IEnMin= 2 EnMin= -2048.74041540013     IErMin= 2 ErrMin= 2.92D-04
 ErrMax= 2.92D-04  0.00D+00 EMaxC= 1.00D-01 BMatC= 4.47D-05 BMatP= 7.57D-05
 IDIUse=3 WtCom= 9.97D-01 WtEn= 2.92D-03
 Coeff-Com:  0.411D+00 0.589D+00
 Coeff-En:   0.000D+00 0.100D+01
 Coeff:      0.410D+00 0.590D+00
 Gap=     0.273 Goal=   None    Shift=    0.000
 RMSDP=1.12D-05 MaxDP=1.35D-03 DE=-5.59D-05 OVMax= 1.52D-03

 Cycle   8  Pass 1  IDiag  1:
 RMSU=  1.07D-05    CP:  1.00D+00  1.03D+00
 E= -2048.74044647338     Delta-E=       -0.000031073249 Rises=F Damp=F
 DIIS: error= 1.43D-04 at cycle   3 NSaved=   3.
 NSaved= 3 IEnMin= 3 EnMin= -2048.74044647338     IErMin= 3 ErrMin= 1.43D-04
 ErrMax= 1.43D-04  0.00D+00 EMaxC= 1.00D-01 BMatC= 1.07D-05 BMatP= 4.47D-05
 IDIUse=3 WtCom= 9.99D-01 WtEn= 1.43D-03
 Coeff-Com: -0.193D-01 0.316D+00 0.704D+00
 Coeff-En:   0.000D+00 0.138D+00 0.862D+00
 Coeff:     -0.193D-01 0.316D+00 0.704D+00
 Gap=     0.274 Goal=   None    Shift=    0.000
 RMSDP=5.72D-06 MaxDP=5.45D-04 DE=-3.11D-05 OVMax= 5.39D-04

 Cycle   9  Pass 1  IDiag  1:
 RMSU=  3.84D-06    CP:  1.00D+00  1.05D+00  7.61D-01
 E= -2048.74045601196     Delta-E=       -0.000009538582 Rises=F Damp=F
 DIIS: error= 3.09D-05 at cycle   4 NSaved=   4.
 NSaved= 4 IEnMin= 4 EnMin= -2048.74045601196     IErMin= 4 ErrMin= 3.09D-05
 ErrMax= 3.09D-05  0.00D+00 EMaxC= 1.00D-01 BMatC= 4.92D-07 BMatP= 1.07D-05
 IDIUse=1 WtCom= 1.00D+00 WtEn= 0.00D+00
 Coeff-Com: -0.304D-01 0.875D-01 0.257D+00 0.686D+00
 Coeff:     -0.304D-01 0.875D-01 0.257D+00 0.686D+00
 Gap=     0.274 Goal=   None    Shift=    0.000
 RMSDP=1.43D-06 MaxDP=1.44D-04 DE=-9.54D-06 OVMax= 3.85D-04

 Cycle  10  Pass 1  IDiag  1:
 RMSU=  1.27D-06    CP:  1.00D+00  1.06D+00  7.93D-01  1.11D+00
 E= -2048.74045683356     Delta-E=       -0.000000821600 Rises=F Damp=F
 DIIS: error= 1.48D-05 at cycle   5 NSaved=   5.
 NSaved= 5 IEnMin= 5 EnMin= -2048.74045683356     IErMin= 5 ErrMin= 1.48D-05
 ErrMax= 1.48D-05  0.00D+00 EMaxC= 1.00D-01 BMatC= 1.19D-07 BMatP= 4.92D-07
 IDIUse=1 WtCom= 1.00D+00 WtEn= 0.00D+00
 Coeff-Com: -0.271D-02-0.555D-01-0.122D+00 0.205D+00 0.975D+00
 Coeff:     -0.271D-02-0.555D-01-0.122D+00 0.205D+00 0.975D+00
 Gap=     0.274 Goal=   None    Shift=    0.000
 RMSDP=1.20D-06 MaxDP=7.87D-05 DE=-8.22D-07 OVMax= 1.85D-04

 Cycle  11  Pass 1  IDiag  1:
 RMSU=  5.05D-07    CP:  1.00D+00  1.06D+00  8.02D-01  1.39D+00  1.17D+00
 E= -2048.74045709126     Delta-E=       -0.000000257694 Rises=F Damp=F
 DIIS: error= 6.72D-06 at cycle   6 NSaved=   6.
 NSaved= 6 IEnMin= 6 EnMin= -2048.74045709126     IErMin= 6 ErrMin= 6.72D-06
 ErrMax= 6.72D-06  0.00D+00 EMaxC= 1.00D-01 BMatC= 2.83D-08 BMatP= 1.19D-07
 IDIUse=1 WtCom= 1.00D+00 WtEn= 0.00D+00
 Coeff-Com:  0.471D-02-0.457D-01-0.115D+00-0.252D-02 0.521D+00 0.638D+00
 Coeff:      0.471D-02-0.457D-01-0.115D+00-0.252D-02 0.521D+00 0.638D+00
 Gap=     0.274 Goal=   None    Shift=    0.000
 RMSDP=3.84D-07 MaxDP=3.83D-05 DE=-2.58D-07 OVMax= 9.75D-05

 Cycle  12  Pass 1  IDiag  1:
 RMSU=  1.95D-07    CP:  1.00D+00  1.06D+00  8.03D-01  1.46D+00  1.31D+00
                    CP:  9.29D-01
 E= -2048.74045713301     Delta-E=       -0.000000041750 Rises=F Damp=F
 DIIS: error= 1.12D-06 at cycle   7 NSaved=   7.
 NSaved= 7 IEnMin= 7 EnMin= -2048.74045713301     IErMin= 7 ErrMin= 1.12D-06
 ErrMax= 1.12D-06  0.00D+00 EMaxC= 1.00D-01 BMatC= 9.29D-10 BMatP= 2.83D-08
 IDIUse=1 WtCom= 1.00D+00 WtEn= 0.00D+00
 Coeff-Com:  0.122D-02-0.835D-02-0.228D-01-0.670D-02 0.682D-01 0.159D+00
 Coeff-Com:  0.809D+00
 Coeff:      0.122D-02-0.835D-02-0.228D-01-0.670D-02 0.682D-01 0.159D+00
 Coeff:      0.809D+00
 Gap=     0.274 Goal=   None    Shift=    0.000
 RMSDP=8.41D-08 MaxDP=5.60D-06 DE=-4.18D-08 OVMax= 1.72D-05

 Cycle  13  Pass 1  IDiag  1:
 RMSU=  5.30D-08    CP:  1.00D+00  1.06D+00  8.03D-01  1.47D+00  1.32D+00
                    CP:  1.02D+00  1.12D+00
 E= -2048.74045713477     Delta-E=       -0.000000001767 Rises=F Damp=F
 DIIS: error= 4.98D-07 at cycle   8 NSaved=   8.
 NSaved= 8 IEnMin= 8 EnMin= -2048.74045713477     IErMin= 8 ErrMin= 4.98D-07
 ErrMax= 4.98D-07  0.00D+00 EMaxC= 1.00D-01 BMatC= 3.71D-10 BMatP= 9.29D-10
 IDIUse=1 WtCom= 1.00D+00 WtEn= 0.00D+00
 Coeff-Com: -0.712D-03 0.876D-02 0.208D-01-0.131D-02-0.116D+00-0.944D-01
 Coeff-Com:  0.420D+00 0.763D+00
 Coeff:     -0.712D-03 0.876D-02 0.208D-01-0.131D-02-0.116D+00-0.944D-01
 Coeff:      0.420D+00 0.763D+00
 Gap=     0.274 Goal=   None    Shift=    0.000
 RMSDP=5.23D-08 MaxDP=3.14D-06 DE=-1.77D-09 OVMax= 9.61D-06

 Cycle  14  Pass 1  IDiag  1:
 RMSU=  2.97D-08    CP:  1.00D+00  1.06D+00  8.02D-01  1.47D+00  1.33D+00
                    CP:  1.06D+00  1.27D+00  1.07D+00
 E= -2048.74045713539     Delta-E=       -0.000000000620 Rises=F Damp=F
 DIIS: error= 1.70D-07 at cycle   9 NSaved=   9.
 NSaved= 9 IEnMin= 9 EnMin= -2048.74045713539     IErMin= 9 ErrMin= 1.70D-07
 ErrMax= 1.70D-07  0.00D+00 EMaxC= 1.00D-01 BMatC= 3.86D-11 BMatP= 3.71D-10
 IDIUse=1 WtCom= 1.00D+00 WtEn= 0.00D+00
 Coeff-Com: -0.464D-03 0.499D-02 0.122D-01 0.775D-03-0.598D-01-0.602D-01
 Coeff-Com:  0.938D-01 0.328D+00 0.681D+00
 Coeff:     -0.464D-03 0.499D-02 0.122D-01 0.775D-03-0.598D-01-0.602D-01
 Coeff:      0.938D-01 0.328D+00 0.681D+00
 Gap=     0.274 Goal=   None    Shift=    0.000
 RMSDP=1.42D-08 MaxDP=9.20D-07 DE=-6.20D-10 OVMax= 2.80D-06

 Cycle  15  Pass 1  IDiag  1:
 RMSU=  9.62D-09    CP:  1.00D+00  1.06D+00  8.02D-01  1.47D+00  1.33D+00
                    CP:  1.07D+00  1.29D+00  1.22D+00  1.10D+00
 E= -2048.74045713566     Delta-E=       -0.000000000263 Rises=F Damp=F
 DIIS: error= 7.73D-08 at cycle  10 NSaved=  10.
 NSaved=10 IEnMin=10 EnMin= -2048.74045713566     IErMin=10 ErrMin= 7.73D-08
 ErrMax= 7.73D-08  0.00D+00 EMaxC= 1.00D-01 BMatC= 5.01D-12 BMatP= 3.86D-11
 IDIUse=1 WtCom= 1.00D+00 WtEn= 0.00D+00
 Coeff-Com:  0.409D-05-0.302D-03-0.588D-03 0.148D-03 0.520D-02 0.111D-02
 Coeff-Com: -0.543D-01-0.568D-01 0.230D+00 0.875D+00
 Coeff:      0.409D-05-0.302D-03-0.588D-03 0.148D-03 0.520D-02 0.111D-02
 Coeff:     -0.543D-01-0.568D-01 0.230D+00 0.875D+00
 Gap=     0.274 Goal=   None    Shift=    0.000
 RMSDP=7.29D-09 MaxDP=4.57D-07 DE=-2.63D-10 OVMax= 1.36D-06

 SCF Done:  E(RwB97XD) =  -2048.74045714     A.U. after   15 cycles
            NFock= 15  Conv=0.73D-08     -V/T= 2.0054
 KE= 2.037721497880D+03 PE=-1.566510296710D+04 EE= 6.136502839528D+03
 Leave Link  502 at Wed Jan 24 00:35:33 2018, MaxMem=  4294967296 cpu:           19798.0 elap:             640.7
 (Enter /share/apps/g16/l601.exe)
 Copying SCF densities to generalized density rwf, IOpCl= 0 IROHF=0.

 **********************************************************************

            Population analysis using the SCF density.

 **********************************************************************

 Orbital symmetries:
       Occupied  (A) (A) (A) (A) (A) (A) (A) (A) (A) (A) (A) (A)
                 (A) (A) (A) (A) (A) (A) (A) (A) (A) (A) (A) (A)
                 (A) (A) (A) (A) (A) (A) (A) (A) (A) (A) (A) (A)
                 (A) (A) (A) (A) (A) (A) (A) (A) (A) (A) (A) (A)
                 (A) (A) (A) (A) (A) (A) (A) (A) (A) (A) (A) (A)
                 (A) (A) (A) (A) (A) (A) (A) (A) (A) (A) (A) (A)
                 (A) (A) (A) (A) (A) (A) (A) (A) (A) (A) (A) (A)
                 (A) (A) (A) (A) (A) (A) (A) (A) (A) (A) (A) (A)
                 (A) (A) (A) (A) (A) (A) (A) (A) (A) (A) (A) (A)
                 (A) (A) (A) (A) (A) (A) (A) (A) (A) (A) (A) (A)
                 (A) (A) (A) (A) (A) (A) (A) (A) (A) (A) (A) (A)
                 (A) (A) (A) (A) (A) (A) (A) (A) (A) (A) (A) (A)
                 (A) (A) (A) (A) (A) (A) (A) (A) (A) (A)
       Virtual   (A) (A) (A) (A) (A) (A) (A) (A) (A) (A) (A) (A)
                 (A) (A) (A) (A) (A) (A) (A) (A) (A) (A) (A) (A)
                 (A) (A) (A) (A) (A) (A) (A) (A) (A) (A) (A) (A)
                 (A) (A) (A) (A) (A) (A) (A) (A) (A) (A) (A) (A)
                 (A) (A) (A) (A) (A) (A) (A) (A) (A) (A) (A) (A)
                 (A) (A) (A) (A) (A) (A) (A) (A) (A) (A) (A) (A)
                 (A) (A) (A) (A) (A) (A) (A) (A) (A) (A) (A) (A)
                 (A) (A) (A) (A) (A) (A) (A) (A) (A) (A) (A) (A)
                 (A) (A) (A) (A) (A) (A) (A) (A) (A) (A) (A) (A)
                 (A) (A) (A) (A) (A) (A) (A) (A) (A) (A) (A) (A)
                 (A) (A) (A) (A) (A) (A) (A) (A) (A) (A) (A) (A)
                 (A) (A) (A) (A) (A) (A) (A) (A) (A) (A) (A) (A)
                 (A) (A) (A) (A) (A) (A) (A) (A) (A) (A) (A) (A)
                 (A) (A) (A) (A) (A) (A) (A) (A) (A) (A) (A) (A)
                 (A) (A) (A) (A) (A) (A) (A) (A) (A) (A) (A) (A)
                 (A) (A) (A) (A) (A) (A) (A) (A) (A) (A) (A) (A)
                 (A) (A) (A) (A) (A) (A) (A) (A) (A) (A) (A) (A)
                 (A) (A) (A) (A) (A) (A) (A) (A) (A) (A) (A) (A)
                 (A) (A) (A) (A) (A) (A) (A) (A) (A) (A) (A) (A)
                 (A) (A) (A) (A) (A) (A) (A) (A) (A) (A) (A) (A)
                 (A) (A) (A) (A) (A) (A) (A) (A) (A) (A) (A) (A)
                 (A) (A) (A) (A) (A) (A) (A) (A) (A) (A) (A) (A)
                 (A) (A) (A) (A) (A) (A) (A) (A) (A) (A) (A) (A)
                 (A) (A) (A) (A) (A) (A) (A) (A) (A) (A) (A) (A)
                 (A) (A) (A) (A) (A) (A) (A) (A) (A) (A) (A) (A)
                 (A) (A) (A) (A) (A) (A) (A) (A) (A) (A) (A) (A)
                 (A) (A) (A) (A) (A) (A) (A) (A) (A) (A) (A) (A)
                 (A) (A) (A) (A) (A) (A) (A) (A) (A) (A) (A) (A)
                 (A) (A) (A) (A) (A) (A) (A) (A) (A) (A) (A) (A)
                 (A) (A) (A) (A) (A) (A) (A) (A) (A) (A) (A) (A)
                 (A) (A) (A) (A) (A) (A) (A) (A) (A) (A) (A) (A)
                 (A) (A) (A) (A) (A) (A) (A) (A) (A) (A) (A) (A)
                 (A) (A) (A) (A) (A) (A) (A) (A) (A) (A) (A) (A)
                 (A) (A) (A) (A) (A) (A) (A) (A) (A) (A) (A) (A)
                 (A) (A) (A) (A) (A) (A) (A) (A) (A) (A) (A) (A)
                 (A) (A) (A) (A) (A) (A) (A) (A) (A) (A) (A) (A)
                 (A) (A) (A) (A) (A) (A) (A) (A) (A) (A) (A) (A)
                 (A) (A) (A) (A) (A) (A) (A) (A) (A) (A) (A) (A)
                 (A) (A) (A) (A) (A) (A) (A) (A) (A) (A) (A) (A)
                 (A) (A) (A) (A) (A) (A) (A) (A) (A) (A) (A) (A)
                 (A) (A) (A) (A) (A) (A) (A) (A) (A) (A) (A) (A)
                 (A) (A) (A) (A) (A) (A) (A) (A) (A) (A) (A) (A)
                 (A) (A) (A) (A) (A) (A) (A) (A) (A) (A) (A) (A)
                 (A) (A) (A) (A) (A) (A) (A) (A) (A) (A) (A) (A)
                 (A) (A) (A) (A) (A) (A) (A) (A) (A) (A) (A) (A)
                 (A) (A) (A) (A) (A) (A) (A) (A) (A) (A) (A) (A)
                 (A) (A) (A) (A) (A) (A) (A) (A) (A) (A) (A) (A)
                 (A) (A) (A) (A) (A) (A) (A) (A) (A) (A) (A) (A)
                 (A) (A) (A) (A) (A) (A) (A)
 The electronic state is 1-A.
 Alpha  occ. eigenvalues --  -19.26099 -19.22788 -19.20767 -14.52733 -14.52163
 Alpha  occ. eigenvalues --  -14.48925 -14.48113 -14.48029 -14.47878 -14.47119
 Alpha  occ. eigenvalues --  -14.46885 -14.45309 -14.43967 -14.43911 -14.42192
 Alpha  occ. eigenvalues --  -14.41528 -14.41018 -14.40592 -14.40294 -14.39675
 Alpha  occ. eigenvalues --  -10.45724 -10.41429 -10.40698 -10.39625 -10.38379
 Alpha  occ. eigenvalues --  -10.38081 -10.37786 -10.36872 -10.35389 -10.35070
 Alpha  occ. eigenvalues --  -10.34753 -10.34488 -10.33623 -10.33461 -10.33318
 Alpha  occ. eigenvalues --  -10.32632 -10.32500 -10.32405 -10.31453 -10.31039
 Alpha  occ. eigenvalues --  -10.30457 -10.28254 -10.27776  -1.19673  -1.14910
 Alpha  occ. eigenvalues --   -1.13707  -1.13367  -1.10735  -1.10584  -1.09641
 Alpha  occ. eigenvalues --   -1.08994  -1.08742  -1.04582  -1.04366  -1.02828
 Alpha  occ. eigenvalues --   -1.00749  -0.99947  -0.99749  -0.98712  -0.96739
 Alpha  occ. eigenvalues --   -0.96587  -0.96185  -0.92037  -0.91438  -0.87329
 Alpha  occ. eigenvalues --   -0.85624  -0.84264  -0.83731  -0.83264  -0.82644
 Alpha  occ. eigenvalues --   -0.81677  -0.79252  -0.76770  -0.74792  -0.74515
 Alpha  occ. eigenvalues --   -0.73853  -0.73665  -0.72238  -0.70408  -0.70166
 Alpha  occ. eigenvalues --   -0.67576  -0.66886  -0.66528  -0.65626  -0.64768
 Alpha  occ. eigenvalues --   -0.64105  -0.63905  -0.62846  -0.62045  -0.61934
 Alpha  occ. eigenvalues --   -0.60462  -0.60175  -0.59968  -0.59745  -0.59209
 Alpha  occ. eigenvalues --   -0.59068  -0.58567  -0.56742  -0.56212  -0.55971
 Alpha  occ. eigenvalues --   -0.55761  -0.55066  -0.54762  -0.54663  -0.54180
 Alpha  occ. eigenvalues --   -0.53868  -0.53645  -0.53479  -0.53249  -0.53165
 Alpha  occ. eigenvalues --   -0.52584  -0.52519  -0.51183  -0.50409  -0.50112
 Alpha  occ. eigenvalues --   -0.49772  -0.49698  -0.49435  -0.49187  -0.48911
 Alpha  occ. eigenvalues --   -0.48682  -0.48539  -0.48201  -0.47836  -0.47573
 Alpha  occ. eigenvalues --   -0.46326  -0.45859  -0.45222  -0.44286  -0.43776
 Alpha  occ. eigenvalues --   -0.40460  -0.40420  -0.39654  -0.37458  -0.37431
 Alpha  occ. eigenvalues --   -0.37406  -0.37296  -0.36478  -0.36270  -0.34537
 Alpha  occ. eigenvalues --   -0.34220  -0.33949  -0.33809  -0.32917  -0.32853
 Alpha  occ. eigenvalues --   -0.32773  -0.32669  -0.32433  -0.32035  -0.30262
 Alpha  occ. eigenvalues --   -0.29836  -0.29386  -0.25714  -0.24930
 Alpha virt. eigenvalues --    0.02444   0.04273   0.07444   0.08005   0.08556
 Alpha virt. eigenvalues --    0.09220   0.09632   0.10745   0.11682   0.11956
 Alpha virt. eigenvalues --    0.13118   0.14381   0.14781   0.15003   0.15059
 Alpha virt. eigenvalues --    0.15555   0.16188   0.17150   0.17399   0.18111
 Alpha virt. eigenvalues --    0.18297   0.19427   0.19789   0.20164   0.20601
 Alpha virt. eigenvalues --    0.20719   0.20962   0.21173   0.21619   0.22004
 Alpha virt. eigenvalues --    0.22491   0.22768   0.23052   0.23562   0.23669
 Alpha virt. eigenvalues --    0.24257   0.24368   0.24618   0.24761   0.25180
 Alpha virt. eigenvalues --    0.25421   0.25909   0.27088   0.27407   0.27986
 Alpha virt. eigenvalues --    0.28873   0.29318   0.29785   0.30662   0.30961
 Alpha virt. eigenvalues --    0.31389   0.31780   0.32431   0.32554   0.33303
 Alpha virt. eigenvalues --    0.34049   0.34254   0.35215   0.36005   0.36150
 Alpha virt. eigenvalues --    0.36648   0.37173   0.37996   0.39049   0.39326
 Alpha virt. eigenvalues --    0.39880   0.40601   0.41065   0.41431   0.41596
 Alpha virt. eigenvalues --    0.42409   0.42830   0.43058   0.43662   0.44289
 Alpha virt. eigenvalues --    0.44785   0.45179   0.46271   0.46809   0.47131
 Alpha virt. eigenvalues --    0.47610   0.48083   0.48328   0.48524   0.49262
 Alpha virt. eigenvalues --    0.49642   0.49992   0.50272   0.50688   0.51138
 Alpha virt. eigenvalues --    0.51366   0.51658   0.52032   0.52460   0.53143
 Alpha virt. eigenvalues --    0.53626   0.54410   0.54574   0.54984   0.55519
 Alpha virt. eigenvalues --    0.55709   0.56465   0.56854   0.57056   0.57421
 Alpha virt. eigenvalues --    0.57635   0.57977   0.59006   0.59081   0.59335
 Alpha virt. eigenvalues --    0.59810   0.60194   0.60293   0.60452   0.61242
 Alpha virt. eigenvalues --    0.61297   0.62017   0.62102   0.62496   0.62910
 Alpha virt. eigenvalues --    0.63336   0.64014   0.64459   0.64679   0.65444
 Alpha virt. eigenvalues --    0.65608   0.65861   0.66380   0.66707   0.67305
 Alpha virt. eigenvalues --    0.67625   0.67793   0.68299   0.68430   0.68631
 Alpha virt. eigenvalues --    0.69972   0.70357   0.70816   0.70981   0.71084
 Alpha virt. eigenvalues --    0.71479   0.71962   0.72484   0.72983   0.73296
 Alpha virt. eigenvalues --    0.74208   0.74388   0.74562   0.74656   0.75220
 Alpha virt. eigenvalues --    0.75852   0.75941   0.76076   0.76379   0.76595
 Alpha virt. eigenvalues --    0.77030   0.77417   0.77865   0.78217   0.78570
 Alpha virt. eigenvalues --    0.78820   0.78836   0.79420   0.79903   0.80240
 Alpha virt. eigenvalues --    0.81181   0.81310   0.81780   0.81914   0.82337
 Alpha virt. eigenvalues --    0.82664   0.83417   0.83744   0.84120   0.84452
 Alpha virt. eigenvalues --    0.85025   0.85524   0.86082   0.86886   0.87179
 Alpha virt. eigenvalues --    0.87370   0.88053   0.88298   0.89036   0.89323
 Alpha virt. eigenvalues --    0.90001   0.90632   0.91244   0.91315   0.91500
 Alpha virt. eigenvalues --    0.91997   0.92488   0.92674   0.93662   0.93907
 Alpha virt. eigenvalues --    0.94091   0.95161   0.95576   0.95830   0.96100
 Alpha virt. eigenvalues --    0.96546   0.96850   0.97344   0.97719   0.98424
 Alpha virt. eigenvalues --    0.98622   0.98833   0.99466   1.00040   1.00435
 Alpha virt. eigenvalues --    1.00834   1.01079   1.01949   1.02289   1.02891
 Alpha virt. eigenvalues --    1.03201   1.03493   1.03630   1.04540   1.04729
 Alpha virt. eigenvalues --    1.05347   1.05793   1.06008   1.06714   1.07017
 Alpha virt. eigenvalues --    1.07634   1.07842   1.08743   1.10792   1.10920
 Alpha virt. eigenvalues --    1.11296   1.11611   1.12031   1.12653   1.12859
 Alpha virt. eigenvalues --    1.13806   1.14338   1.14494   1.15160   1.15398
 Alpha virt. eigenvalues --    1.15514   1.16068   1.16422   1.16666   1.16913
 Alpha virt. eigenvalues --    1.18024   1.18228   1.18578   1.18801   1.19581
 Alpha virt. eigenvalues --    1.19812   1.20063   1.20362   1.20751   1.20929
 Alpha virt. eigenvalues --    1.21421   1.21957   1.22199   1.22622   1.23198
 Alpha virt. eigenvalues --    1.23480   1.23783   1.24041   1.24239   1.24507
 Alpha virt. eigenvalues --    1.24733   1.24994   1.25634   1.25969   1.26931
 Alpha virt. eigenvalues --    1.27823   1.28299   1.28868   1.30082   1.30320
 Alpha virt. eigenvalues --    1.30965   1.32180   1.32689   1.32798   1.33831
 Alpha virt. eigenvalues --    1.34179   1.34738   1.35140   1.35684   1.36381
 Alpha virt. eigenvalues --    1.37061   1.37361   1.38170   1.39411   1.39686
 Alpha virt. eigenvalues --    1.40183   1.40553   1.40988   1.41506   1.42431
 Alpha virt. eigenvalues --    1.45318   1.45942   1.46288   1.46605   1.46970
 Alpha virt. eigenvalues --    1.47594   1.48633   1.49061   1.49960   1.50133
 Alpha virt. eigenvalues --    1.50410   1.51644   1.52675   1.53232   1.53597
 Alpha virt. eigenvalues --    1.54472   1.55039   1.55999   1.56558   1.57195
 Alpha virt. eigenvalues --    1.58034   1.58154   1.58819   1.59129   1.59771
 Alpha virt. eigenvalues --    1.60151   1.61386   1.61517   1.62265   1.62571
 Alpha virt. eigenvalues --    1.63469   1.63966   1.64408   1.64936   1.65662
 Alpha virt. eigenvalues --    1.66276   1.67206   1.67916   1.68376   1.68818
 Alpha virt. eigenvalues --    1.68954   1.69697   1.70333   1.70837   1.71432
 Alpha virt. eigenvalues --    1.71907   1.72320   1.72385   1.72869   1.73355
 Alpha virt. eigenvalues --    1.73576   1.73654   1.74279   1.75162   1.75280
 Alpha virt. eigenvalues --    1.75639   1.75702   1.75975   1.76531   1.76752
 Alpha virt. eigenvalues --    1.77407   1.77430   1.77506   1.78071   1.78394
 Alpha virt. eigenvalues --    1.78704   1.78783   1.79581   1.79673   1.79910
 Alpha virt. eigenvalues --    1.80287   1.80482   1.80788   1.80931   1.81135
 Alpha virt. eigenvalues --    1.81651   1.82242   1.83087   1.83640   1.84207
 Alpha virt. eigenvalues --    1.84884   1.85202   1.85760   1.85866   1.86391
 Alpha virt. eigenvalues --    1.87038   1.87421   1.87932   1.88780   1.88873
 Alpha virt. eigenvalues --    1.89473   1.89641   1.90071   1.90652   1.91273
 Alpha virt. eigenvalues --    1.91539   1.92077   1.92411   1.92967   1.93566
 Alpha virt. eigenvalues --    1.93985   1.94604   1.95102   1.96383   1.97360
 Alpha virt. eigenvalues --    1.97724   1.98393   1.98912   2.00099   2.00769
 Alpha virt. eigenvalues --    2.01053   2.01237   2.01857   2.02106   2.02929
 Alpha virt. eigenvalues --    2.03865   2.03935   2.05722   2.05954   2.06453
 Alpha virt. eigenvalues --    2.07575   2.07891   2.08129   2.08471   2.08744
 Alpha virt. eigenvalues --    2.09417   2.09924   2.11043   2.11704   2.12134
 Alpha virt. eigenvalues --    2.12352   2.14372   2.14836   2.15952   2.17691
 Alpha virt. eigenvalues --    2.18764   2.19536   2.19873   2.20618   2.21091
 Alpha virt. eigenvalues --    2.21733   2.22071   2.22499   2.22729   2.23771
 Alpha virt. eigenvalues --    2.23964   2.24563   2.25284   2.25676   2.25856
 Alpha virt. eigenvalues --    2.27074   2.27397   2.28524   2.29084   2.30124
 Alpha virt. eigenvalues --    2.30158   2.30456   2.30940   2.31292   2.32008
 Alpha virt. eigenvalues --    2.32632   2.32963   2.33393   2.33740   2.34258
 Alpha virt. eigenvalues --    2.34490   2.35022   2.35046   2.35376   2.36692
 Alpha virt. eigenvalues --    2.37252   2.38248   2.39536   2.40057   2.41241
 Alpha virt. eigenvalues --    2.42052   2.42377   2.43289   2.43670   2.44103
 Alpha virt. eigenvalues --    2.44508   2.44692   2.44989   2.46164   2.47399
 Alpha virt. eigenvalues --    2.47845   2.49227   2.49666   2.50942   2.51325
 Alpha virt. eigenvalues --    2.51841   2.52916   2.54189   2.54814   2.55256
 Alpha virt. eigenvalues --    2.55916   2.57046   2.57708   2.58082   2.58912
 Alpha virt. eigenvalues --    2.60662   2.61140   2.61676   2.62391   2.62671
 Alpha virt. eigenvalues --    2.63044   2.64443   2.64846   2.64988   2.65398
 Alpha virt. eigenvalues --    2.65924   2.67283   2.67888   2.68143   2.69014
 Alpha virt. eigenvalues --    2.69650   2.69878   2.70704   2.70903   2.72410
 Alpha virt. eigenvalues --    2.72979   2.74012   2.75529   2.75709   2.76227
 Alpha virt. eigenvalues --    2.77123   2.77282   2.78463   2.78858   2.79267
 Alpha virt. eigenvalues --    2.79296   2.80217   2.80521   2.80636   2.81327
 Alpha virt. eigenvalues --    2.81492   2.81726   2.82392   2.83398   2.83824
 Alpha virt. eigenvalues --    2.84466   2.84897   2.85774   2.85820   2.86791
 Alpha virt. eigenvalues --    2.87528   2.88025   2.88428   2.90392   2.92628
 Alpha virt. eigenvalues --    2.93497   2.94505   2.95549   2.96341   2.98144
 Alpha virt. eigenvalues --    3.00027   3.00523   3.01287   3.04226   3.05012
 Alpha virt. eigenvalues --    3.05550   3.09833   3.11311   3.12955   3.14732
 Alpha virt. eigenvalues --    3.15270   3.15899   3.16333   3.16705   3.20049
 Alpha virt. eigenvalues --    3.21019   3.22235   3.23226   3.24577   3.25118
 Alpha virt. eigenvalues --    3.45018   3.47125   3.47594   3.49552   3.49943
 Alpha virt. eigenvalues --    3.53531   3.54253   3.55853   3.57488   3.59539
 Alpha virt. eigenvalues --    3.62295   3.70331   3.74396
          Condensed to atoms (all electrons):
 Mulliken charges:
               1
     1  N   -0.312912
     2  C    0.181176
     3  C    0.053467
     4  N   -0.257001
     5  C    0.136886
     6  H    0.024234
     7  N   -0.299275
     8  C    0.135063
     9  H    0.008408
    10  N   -0.292375
    11  C    0.250185
    12  C    0.107248
    13  N   -0.052662
    14  H    0.115244
    15  H    0.083193
    16  H    0.023723
    17  H    0.031700
    18  H    0.024342
    19  N   -0.311542
    20  C    0.251665
    21  C    0.180630
    22  N   -0.121833
    23  H    0.115023
    24  H    0.117741
    25  N   -0.311198
    26  C    0.247332
    27  N   -0.151744
    28  H    0.121731
    29  C    0.195879
    30  O   -0.322026
    31  C   -0.013709
    32  N   -0.225528
    33  C    0.132193
    34  H    0.022795
    35  H    0.029784
    36  H    0.029052
    37  H    0.024561
    38  H    0.063128
    39  H    0.059223
    40  H    0.072563
    41  H    0.028455
    42  C   -0.122874
    43  O   -0.265417
    44  C    0.145937
    45  H    0.131806
    46  N   -0.106964
    47  O   -0.341886
    48  C    0.334243
    49  H    0.047962
    50  C    0.166887
    51  C    0.038406
    52  N   -0.274547
    53  H    0.033688
    54  H    0.042692
    55  H    0.026780
    56  H    0.128343
    57  H    0.113494
    58  N   -0.046924
    59  C    0.080489
    60  C    0.250878
    61  N   -0.274833
    62  H    0.038225
    63  C    0.169517
    64  N   -0.308813
    65  H    0.036134
    66  C    0.138047
    67  N   -0.270589
    68  C    0.026292
    69  C    0.179952
    70  N   -0.311749
 Sum of Mulliken charges =  -0.00000
 Mulliken charges with hydrogens summed into heavy atoms:
               1
     1  N   -0.312912
     2  C    0.260940
     3  C    0.053467
     4  N   -0.257001
     5  C    0.161120
     7  N   -0.299275
     8  C    0.143471
    10  N   -0.292375
    11  C    0.250185
    12  C    0.107248
    13  N    0.145775
    19  N   -0.311542
    20  C    0.251665
    21  C    0.264027
    22  N    0.110931
    25  N   -0.311198
    26  C    0.247332
    27  N   -0.030012
    29  C    0.195879
    30  O   -0.322026
    31  C   -0.013709
    32  N   -0.225528
    33  C    0.154989
    42  C   -0.094419
    43  O   -0.265417
    44  C    0.145937
    46  N    0.024842
    47  O   -0.341886
    48  C    0.334243
    50  C    0.214849
    51  C    0.233320
    52  N   -0.274547
    58  N    0.194914
    59  C    0.080489
    60  C    0.250878
    61  N   -0.274833
    63  C    0.207742
    64  N   -0.308813
    66  C    0.174181
    67  N   -0.270589
    68  C    0.026292
    69  C    0.283112
    70  N   -0.311749
 Electronic spatial extent (au):  <R**2>=          22436.2940
 Charge=             -0.0000 electrons
 Dipole moment (field-independent basis, Debye):
    X=              8.4246    Y=              6.5877    Z=              0.9852  Tot=             10.7397
 Quadrupole moment (field-independent basis, Debye-Ang):
   XX=           -155.9001   YY=           -218.1642   ZZ=           -250.7424
   XY=             -0.9519   XZ=             -2.5876   YZ=             -0.8999
 Traceless Quadrupole moment (field-independent basis, Debye-Ang):
   XX=             52.3688   YY=             -9.8953   ZZ=            -42.4735
   XY=             -0.9519   XZ=             -2.5876   YZ=             -0.8999
 Octapole moment (field-independent basis, Debye-Ang**2):
  XXX=            -66.8553  YYY=            130.8693  ZZZ=              7.0180  XYY=             48.5221
  XXY=             41.3116  XXZ=            -10.6445  XZZ=             86.9138  YZZ=             45.9579
  YYZ=             30.3421  XYZ=             83.1456
 Hexadecapole moment (field-independent basis, Debye-Ang**3):
 XXXX=         -14797.5995 YYYY=          -6056.8929 ZZZZ=          -4334.5469 XXXY=            485.9885
 XXXZ=            -90.7585 YYYX=           -130.7580 YYYZ=            -30.3777 ZZZX=            104.0838
 ZZZY=            101.1239 XXYY=          -3263.0214 XXZZ=          -3590.8398 YYZZ=          -1796.5200
 XXYZ=            181.6643 YYXZ=            114.8700 ZZXY=            132.5294
 N-N= 5.442138172559D+03 E-N=-1.566510296775D+04  KE= 2.037721497880D+03
 No NMR shielding tensors so no spin-rotation constants.
 Leave Link  601 at Wed Jan 24 00:35:34 2018, MaxMem=  4294967296 cpu:              44.4 elap:               1.6
 (Enter /share/apps/g16/l9999.exe)
 1\1\GINC-COMPUTE-0-3\SP\RwB97XD\CC-pVDZ\C23H27N17O3\SATYA\24-Jan-2018\
 0\\#p wb97xd/cc-pvdz sp scf=(maxcycles=20)\\Base pair stacking\\0,1\N,
 0,6.65612,-0.06232,-4.4075\C,0,7.84219,0.81586,-4.41446\C,0,4.66788,-0
 .92023,-4.79248\N,0,5.30685,-1.79505,-3.92581\C,0,6.47911,-1.24318,-3.
 72856\H,0,7.26052,-1.65838,-3.09141\N,0,3.06651,0.08838,-6.20006\C,0,3
 .96551,1.05735,-6.40122\H,0,3.64608,1.85684,-7.06834\N,0,5.19407,1.186
 42,-5.90435\C,0,5.48711,0.15254,-5.09833\C,0,3.39159,-0.93787,-5.38384
 \N,0,2.49553,-1.90608,-5.1818\H,0,2.6933,-2.68487,-4.58549\H,0,1.59648
 ,-1.88599,-5.61935\H,0,8.63229,0.30848,-4.75868\H,0,7.67067,1.60422,-5
 .00454\H,0,8.03069,1.13227,-3.48475\N,0,2.80222,3.83742,-3.06011\C,0,1
 .67662,3.08941,-3.30822\C,0,2.93585,5.28694,-3.30857\N,0,-1.60246,2.87
 114,-4.43148\H,0,-2.3009,2.16364,-4.53574\H,0,-1.8516,3.79915,-4.70976
 \N,0,0.51293,3.54924,-3.81658\C,0,-0.38613,2.58908,-3.94068\N,0,-0.164
 53,1.27827,-3.59403\H,0,-0.91009,0.61166,-3.72342\C,0,1.02496,0.78276,
 -3.06919\O,0,1.1214,-0.41857,-2.78948\C,0,2.00041,1.80257,-2.93007\N,0
 ,3.30308,1.74387,-2.45414\C,0,3.738,2.97102,-2.54987\H,0,4.73686,3.300
 11,-2.26134\H,0,3.67656,5.44829,-3.95981\H,0,2.0799,5.63868,-3.68526\H
 ,0,3.13888,5.75663,-2.45009\H,0,-4.78945,-2.32114,-5.20731\H,0,-5.2391
 6,-2.22812,-3.50621\H,0,-4.41107,-0.87304,-4.27394\H,0,-1.71559,-5.497
 97,-3.30844\C,0,-1.83497,-4.41826,-3.39904\O,0,0.41695,-3.93638,-2.830
 07\C,0,-0.71272,-3.56631,-3.14895\H,0,-0.20315,-1.58439,-3.12262\N,0,-
 0.97181,-2.21801,-3.29118\O,0,-2.29785,-0.42978,-3.73952\C,0,-2.16559,
 -1.63683,-3.63855\H,0,-3.89614,-4.48504,-3.94029\C,0,-3.01225,-3.88103
 ,-3.73965\C,0,-4.49506,-1.94902,-4.2373\N,0,-3.19987,-2.52389,-3.86346
 \H,0,-3.80513,0.71347,-10.08235\H,0,-2.97168,1.52284,-8.93676\H,0,-4.5
 5736,1.20289,-8.71925\H,0,-0.44554,-4.08454,-5.52627\H,0,-1.95892,-4.4
 0062,-6.2473\N,0,-1.21646,-3.75352,-6.07057\C,0,-1.25375,-2.50487,-6.5
 4031\C,0,-2.20932,-0.67606,-7.72525\N,0,-1.19805,0.17112,-7.47222\H,0,
 0.59971,0.19229,-6.48823\C,0,-0.26036,-0.42673,-6.73995\N,0,-0.22117,-
 1.67724,-6.26849\H,0,-5.04037,-1.66985,-8.92929\C,0,-4.07608,-1.58779,
 -8.42694\N,0,-3.49852,-2.55681,-7.75978\C,0,-2.314,-1.99204,-7.30959\C
 ,0,-3.69913,0.85663,-9.09834\N,0,-3.35136,-0.42113,-8.44688\\Version=E
 M64L-G16RevA.03\State=1-A\HF=-2048.7404571\RMSD=7.293e-09\Dipole=-3.81
 48898,1.1720865,-1.3879217\Quadrupole=28.9906897,-0.4501323,-28.540557
 3,15.9917986,13.711472,4.1117588\PG=C01 [X(C23H27N17O3)]\\@


 THE MORE POWERFUL THE METHOD, THE MORE CATASTROPHIC THE ERRORS.
     -- M.D. KAMEN
 Job cpu time:       0 days  5 hours 40 minutes  0.3 seconds.
 Elapsed time:       0 days  0 hours 11 minutes  0.0 seconds.
 File lengths (MBytes):  RWF=    298 Int=      0 D2E=      0 Chk=     33 Scr=      1
 Normal termination of Gaussian 16 at Wed Jan 24 00:35:35 2018.
