 Entering Gaussian System, Link 0=g16
 Input=str45.-10.2.5.com
 Output=str45.-10.2.5.log
 Initial command:
 /share/apps/g16/l1.exe "/state/partition1/scr/Gau-26256.inp" -scrdir="/state/partition1/scr/"
 Entering Link 1 = /share/apps/g16/l1.exe PID=     26257.
  
 Copyright (c) 1988,1990,1992,1993,1995,1998,2003,2009,2016,
            Gaussian, Inc.  All Rights Reserved.
  
 This is part of the Gaussian(R) 16 program.  It is based on
 the Gaussian(R) 09 system (copyright 2009, Gaussian, Inc.),
 the Gaussian(R) 03 system (copyright 2003, Gaussian, Inc.),
 the Gaussian(R) 98 system (copyright 1998, Gaussian, Inc.),
 the Gaussian(R) 94 system (copyright 1995, Gaussian, Inc.),
 the Gaussian 92(TM) system (copyright 1992, Gaussian, Inc.),
 the Gaussian 90(TM) system (copyright 1990, Gaussian, Inc.),
 the Gaussian 88(TM) system (copyright 1988, Gaussian, Inc.),
 the Gaussian 86(TM) system (copyright 1986, Carnegie Mellon
 University), and the Gaussian 82(TM) system (copyright 1983,
 Carnegie Mellon University). Gaussian is a federally registered
 trademark of Gaussian, Inc.
  
 This software contains proprietary and confidential information,
 including trade secrets, belonging to Gaussian, Inc.
  
 This software is provided under written license and may be
 used, copied, transmitted, or stored only in accord with that
 written license.
  
 The following legend is applicable only to US Government
 contracts under FAR:
  
                    RESTRICTED RIGHTS LEGEND
  
 Use, reproduction and disclosure by the US Government is
 subject to restrictions as set forth in subparagraphs (a)
 and (c) of the Commercial Computer Software - Restricted
 Rights clause in FAR 52.227-19.
  
 Gaussian, Inc.
 340 Quinnipiac St., Bldg. 40, Wallingford CT 06492
  
  
 ---------------------------------------------------------------
 Warning -- This program may not be used in any manner that
 competes with the business of Gaussian, Inc. or will provide
 assistance to any competitor of Gaussian, Inc.  The licensee
 of this program is prohibited from giving any competitor of
 Gaussian, Inc. access to this program.  By using this program,
 the user acknowledges that Gaussian, Inc. is engaged in the
 business of creating and licensing software in the field of
 computational chemistry and represents and warrants to the
 licensee that it is not a competitor of Gaussian, Inc. and that
 it will not use this program in any manner prohibited above.
 ---------------------------------------------------------------
  

 Cite this work as:
 Gaussian 16, Revision A.03,
 M. J. Frisch, G. W. Trucks, H. B. Schlegel, G. E. Scuseria, 
 M. A. Robb, J. R. Cheeseman, G. Scalmani, V. Barone, 
 G. A. Petersson, H. Nakatsuji, X. Li, M. Caricato, A. V. Marenich, 
 J. Bloino, B. G. Janesko, R. Gomperts, B. Mennucci, H. P. Hratchian, 
 J. V. Ortiz, A. F. Izmaylov, J. L. Sonnenberg, D. Williams-Young, 
 F. Ding, F. Lipparini, F. Egidi, J. Goings, B. Peng, A. Petrone, 
 T. Henderson, D. Ranasinghe, V. G. Zakrzewski, J. Gao, N. Rega, 
 G. Zheng, W. Liang, M. Hada, M. Ehara, K. Toyota, R. Fukuda, 
 J. Hasegawa, M. Ishida, T. Nakajima, Y. Honda, O. Kitao, H. Nakai, 
 T. Vreven, K. Throssell, J. A. Montgomery, Jr., J. E. Peralta, 
 F. Ogliaro, M. J. Bearpark, J. J. Heyd, E. N. Brothers, K. N. Kudin, 
 V. N. Staroverov, T. A. Keith, R. Kobayashi, J. Normand, 
 K. Raghavachari, A. P. Rendell, J. C. Burant, S. S. Iyengar, 
 J. Tomasi, M. Cossi, J. M. Millam, M. Klene, C. Adamo, R. Cammi, 
 J. W. Ochterski, R. L. Martin, K. Morokuma, O. Farkas, 
 J. B. Foresman, and D. J. Fox, Gaussian, Inc., Wallingford CT, 2016.
 
 ******************************************
 Gaussian 16:  EM64L-G16RevA.03 25-Dec-2016
                23-Jan-2018 
 ******************************************
 %nprocshared=32
 Will use up to   32 processors via shared memory.
 %mem=32GB
 %chk=allatoms_t.chk
 ---------------------------------------
 #p wb97xd/cc-pvdz sp scf=(maxcycles=20)
 ---------------------------------------
 1/38=1,172=1/1;
 2/12=2,17=6,18=5,40=1/2;
 3/5=16,11=2,25=1,30=1,74=-58/1,2,3;
 4//1;
 5/5=2,7=20,38=5/2;
 6/7=2,8=2,9=2,10=2,28=1/1;
 99/5=1,9=1/99;
 Leave Link    1 at Tue Jan 23 18:37:47 2018, MaxMem=  4294967296 cpu:               2.8 elap:               0.1
 (Enter /share/apps/g16/l101.exe)
 ------------------
 Base pair stacking
 ------------------
 Symbolic Z-matrix:
 Charge =  0 Multiplicity = 1
 N                     1.44222  -1.46931  -6.82135 
 C                     2.53859  -0.48989  -6.95066 
 C                    -0.52573  -2.39871  -6.50401 
 N                     0.35035  -3.43452  -6.79438 
 C                     1.50091  -2.83313  -6.97394 
 H                     2.43366  -3.34052  -7.22185 
 N                    -2.47067  -1.17595  -5.97013 
 C                    -1.70389  -0.08174  -6.01848 
 H                    -2.21855   0.85613  -5.81402 
 N                    -0.40294   0.02738  -6.28024 
 C                     0.13282  -1.18148  -6.51699 
 C                    -1.90188  -2.37702  -6.21302 
 N                    -2.66564  -3.47043  -6.16522 
 H                    -2.2869   -4.38028  -6.33827 
 H                    -3.64191  -3.41744  -5.95492 
 H                     2.92105  -0.53557  -7.8736 
 H                     2.18621   0.43018  -6.78209 
 H                     3.2546   -0.69804  -6.28433 
 N                     1.15352   2.02179  -3.25822 
 C                     0.00661   1.27579  -3.13126 
 C                     1.21497   3.49715  -3.2733 
 N                    -3.44221   1.10093  -2.76141 
 H                    -4.14052   0.39     -2.68263 
 H                    -3.75612   2.05034  -2.73332 
 N                    -1.24682   1.76132  -3.00001 
 C                    -2.14299   0.79581  -2.8986 
 N                    -1.83714  -0.54335  -2.92358 
 H                    -2.58742  -1.21191  -2.83948 
 C                    -0.55452  -1.06562  -3.05774 
 O                    -0.38678  -2.29138  -3.06861 
 C                     0.419    -0.04042  -3.16777 
 N                     1.79708  -0.11915  -3.3147 
 C                     2.18872   1.1252   -3.36376 
 H                     3.22487   1.4461   -3.47642 
 H                     1.60889   3.80719  -4.13789 
 H                     0.29227   3.86806  -3.17677 
 H                     1.78244   3.81655  -2.51517 
 H                    -6.82203  -4.02032  -3.02283 
 H                    -6.49394  -4.25225  -1.30725 
 H                    -6.03201  -2.74393  -2.09651 
 H                    -3.33668  -7.33017  -3.23201 
 C                    -3.44788  -6.2586   -3.06588 
 O                    -1.15545  -5.7763   -3.43908 
 C                    -2.29972  -5.41093  -3.17086 
 H                    -1.76348  -3.44268  -3.00731 
 N                    -2.55035  -4.073    -2.94204 
 O                    -3.88087  -2.30021  -2.44792 
 C                    -3.75777  -3.49817  -2.63342 
 H                    -5.54261  -6.32851  -2.67472 
 C                    -4.63895  -5.72738  -2.76628 
 C                    -6.1274   -3.81215  -2.22269 
 N                    -4.81688  -4.38053  -2.55016 
 H                    -10.16179  -0.09686  -4.43246 
 H                    -8.7256    0.12045  -3.68934 
 H                    -9.95113  -0.61191  -2.89826 
 H                    -5.5849   -5.70284  -6.07277 
 H                    -7.27081  -5.9049   -5.90854 
 N                    -6.4699   -5.31168  -5.81995 
 C                    -6.57832  -4.05498  -5.38392 
 C                    -7.75081  -2.14572  -4.58283 
 N                    -6.65809  -1.37207  -4.47392 
 H                    -4.63651  -1.48782  -4.79082 
 C                    -5.57125  -2.04388  -4.84856 
 N                    -5.46059  -3.30259  -5.28557 
 H                    -10.88319  -2.92791  -4.414 
 C                    -9.80262  -2.91899  -4.55967 
 N                    -9.10121  -3.93607  -4.99698 
 C                    -7.79853  -3.45922  -5.01641 
 C                    -9.50861  -0.4931   -3.78722 
 N                    -9.04932  -1.80269  -4.28924 
 
 ITRead=  0  0  0  0  0  0  0  0  0  0  0  0  0  0  0  0  0  0  0  0
 ITRead=  0  0  0  0  0  0  0  0  0  0  0  0  0  0  0  0  0  0  0  0
 ITRead=  0  0  0  0  0  0  0  0  0  0  0  0  0  0  0  0  0  0  0  0
 ITRead=  0  0  0  0  0  0  0  0  0  0
 MicOpt= -1 -1 -1 -1 -1 -1 -1 -1 -1 -1 -1 -1 -1 -1 -1 -1 -1 -1 -1 -1
 MicOpt= -1 -1 -1 -1 -1 -1 -1 -1 -1 -1 -1 -1 -1 -1 -1 -1 -1 -1 -1 -1
 MicOpt= -1 -1 -1 -1 -1 -1 -1 -1 -1 -1 -1 -1 -1 -1 -1 -1 -1 -1 -1 -1
 MicOpt= -1 -1 -1 -1 -1 -1 -1 -1 -1 -1
 NAtoms=     70 NQM=       70 NQMF=       0 NMMI=      0 NMMIF=      0
                NMic=       0 NMicF=      0.
                    Isotopes and Nuclear Properties:
 (Nuclear quadrupole moments (NQMom) in fm**2, nuclear magnetic moments (NMagM)
  in nuclear magnetons)

  Atom         1           2           3           4           5           6           7           8           9          10
 IAtWgt=          14          12          12          14          12           1          14          12           1          14
 AtmWgt=  14.0030740  12.0000000  12.0000000  14.0030740  12.0000000   1.0078250  14.0030740  12.0000000   1.0078250  14.0030740
 NucSpn=           2           0           0           2           0           1           2           0           1           2
 AtZEff=  -0.0000000  -0.0000000  -0.0000000  -0.0000000  -0.0000000  -0.0000000  -0.0000000  -0.0000000  -0.0000000  -0.0000000
 NQMom=    2.0440000   0.0000000   0.0000000   2.0440000   0.0000000   0.0000000   2.0440000   0.0000000   0.0000000   2.0440000
 NMagM=    0.4037610   0.0000000   0.0000000   0.4037610   0.0000000   2.7928460   0.4037610   0.0000000   2.7928460   0.4037610
 AtZNuc=   7.0000000   6.0000000   6.0000000   7.0000000   6.0000000   1.0000000   7.0000000   6.0000000   1.0000000   7.0000000

  Atom        11          12          13          14          15          16          17          18          19          20
 IAtWgt=          12          12          14           1           1           1           1           1          14          12
 AtmWgt=  12.0000000  12.0000000  14.0030740   1.0078250   1.0078250   1.0078250   1.0078250   1.0078250  14.0030740  12.0000000
 NucSpn=           0           0           2           1           1           1           1           1           2           0
 AtZEff=  -0.0000000  -0.0000000  -0.0000000  -0.0000000  -0.0000000  -0.0000000  -0.0000000  -0.0000000  -0.0000000  -0.0000000
 NQMom=    0.0000000   0.0000000   2.0440000   0.0000000   0.0000000   0.0000000   0.0000000   0.0000000   2.0440000   0.0000000
 NMagM=    0.0000000   0.0000000   0.4037610   2.7928460   2.7928460   2.7928460   2.7928460   2.7928460   0.4037610   0.0000000
 AtZNuc=   6.0000000   6.0000000   7.0000000   1.0000000   1.0000000   1.0000000   1.0000000   1.0000000   7.0000000   6.0000000

  Atom        21          22          23          24          25          26          27          28          29          30
 IAtWgt=          12          14           1           1          14          12          14           1          12          16
 AtmWgt=  12.0000000  14.0030740   1.0078250   1.0078250  14.0030740  12.0000000  14.0030740   1.0078250  12.0000000  15.9949146
 NucSpn=           0           2           1           1           2           0           2           1           0           0
 AtZEff=  -0.0000000  -0.0000000  -0.0000000  -0.0000000  -0.0000000  -0.0000000  -0.0000000  -0.0000000  -0.0000000  -0.0000000
 NQMom=    0.0000000   2.0440000   0.0000000   0.0000000   2.0440000   0.0000000   2.0440000   0.0000000   0.0000000   0.0000000
 NMagM=    0.0000000   0.4037610   2.7928460   2.7928460   0.4037610   0.0000000   0.4037610   2.7928460   0.0000000   0.0000000
 AtZNuc=   6.0000000   7.0000000   1.0000000   1.0000000   7.0000000   6.0000000   7.0000000   1.0000000   6.0000000   8.0000000

  Atom        31          32          33          34          35          36          37          38          39          40
 IAtWgt=          12          14          12           1           1           1           1           1           1           1
 AtmWgt=  12.0000000  14.0030740  12.0000000   1.0078250   1.0078250   1.0078250   1.0078250   1.0078250   1.0078250   1.0078250
 NucSpn=           0           2           0           1           1           1           1           1           1           1
 AtZEff=  -0.0000000  -0.0000000  -0.0000000  -0.0000000  -0.0000000  -0.0000000  -0.0000000  -0.0000000  -0.0000000  -0.0000000
 NQMom=    0.0000000   2.0440000   0.0000000   0.0000000   0.0000000   0.0000000   0.0000000   0.0000000   0.0000000   0.0000000
 NMagM=    0.0000000   0.4037610   0.0000000   2.7928460   2.7928460   2.7928460   2.7928460   2.7928460   2.7928460   2.7928460
 AtZNuc=   6.0000000   7.0000000   6.0000000   1.0000000   1.0000000   1.0000000   1.0000000   1.0000000   1.0000000   1.0000000

  Atom        41          42          43          44          45          46          47          48          49          50
 IAtWgt=           1          12          16          12           1          14          16          12           1          12
 AtmWgt=   1.0078250  12.0000000  15.9949146  12.0000000   1.0078250  14.0030740  15.9949146  12.0000000   1.0078250  12.0000000
 NucSpn=           1           0           0           0           1           2           0           0           1           0
 AtZEff=  -0.0000000  -0.0000000  -0.0000000  -0.0000000  -0.0000000  -0.0000000  -0.0000000  -0.0000000  -0.0000000  -0.0000000
 NQMom=    0.0000000   0.0000000   0.0000000   0.0000000   0.0000000   2.0440000   0.0000000   0.0000000   0.0000000   0.0000000
 NMagM=    2.7928460   0.0000000   0.0000000   0.0000000   2.7928460   0.4037610   0.0000000   0.0000000   2.7928460   0.0000000
 AtZNuc=   1.0000000   6.0000000   8.0000000   6.0000000   1.0000000   7.0000000   8.0000000   6.0000000   1.0000000   6.0000000

  Atom        51          52          53          54          55          56          57          58          59          60
 IAtWgt=          12          14           1           1           1           1           1          14          12          12
 AtmWgt=  12.0000000  14.0030740   1.0078250   1.0078250   1.0078250   1.0078250   1.0078250  14.0030740  12.0000000  12.0000000
 NucSpn=           0           2           1           1           1           1           1           2           0           0
 AtZEff=  -0.0000000  -0.0000000  -0.0000000  -0.0000000  -0.0000000  -0.0000000  -0.0000000  -0.0000000  -0.0000000  -0.0000000
 NQMom=    0.0000000   2.0440000   0.0000000   0.0000000   0.0000000   0.0000000   0.0000000   2.0440000   0.0000000   0.0000000
 NMagM=    0.0000000   0.4037610   2.7928460   2.7928460   2.7928460   2.7928460   2.7928460   0.4037610   0.0000000   0.0000000
 AtZNuc=   6.0000000   7.0000000   1.0000000   1.0000000   1.0000000   1.0000000   1.0000000   7.0000000   6.0000000   6.0000000

  Atom        61          62          63          64          65          66          67          68          69          70
 IAtWgt=          14           1          12          14           1          12          14          12          12          14
 AtmWgt=  14.0030740   1.0078250  12.0000000  14.0030740   1.0078250  12.0000000  14.0030740  12.0000000  12.0000000  14.0030740
 NucSpn=           2           1           0           2           1           0           2           0           0           2
 AtZEff=  -0.0000000  -0.0000000  -0.0000000  -0.0000000  -0.0000000  -0.0000000  -0.0000000  -0.0000000  -0.0000000  -0.0000000
 NQMom=    2.0440000   0.0000000   0.0000000   2.0440000   0.0000000   0.0000000   2.0440000   0.0000000   0.0000000   2.0440000
 NMagM=    0.4037610   2.7928460   0.0000000   0.4037610   2.7928460   0.0000000   0.4037610   0.0000000   0.0000000   0.4037610
 AtZNuc=   7.0000000   1.0000000   6.0000000   7.0000000   1.0000000   6.0000000   7.0000000   6.0000000   6.0000000   7.0000000
 Leave Link  101 at Tue Jan 23 18:37:47 2018, MaxMem=  4294967296 cpu:               7.8 elap:               0.3
 (Enter /share/apps/g16/l202.exe)
 Stoichiometry    C23H27N17O3
 Framework group  C1[X(C23H27N17O3)]
 Deg. of freedom   204
 Full point group                 C1      NOp   1
 Largest Abelian subgroup         C1      NOp   1
 Largest concise Abelian subgroup C1      NOp   1
                         Standard orientation:                         
 ---------------------------------------------------------------------
 Center     Atomic      Atomic             Coordinates (Angstroms)
 Number     Number       Type             X           Y           Z
 ---------------------------------------------------------------------
      1          7           0        4.274134   -1.847234   -1.867055
      2          6           0        5.669942   -1.407744   -2.058310
      3          6           0        2.087089   -1.874574   -1.635958
      4          7           0        2.503734   -3.194581   -1.542558
      5          6           0        3.804679   -3.125276   -1.685519
      6          1           0        4.477057   -3.983460   -1.666702
      7          7           0        0.748379    0.066309   -1.697506
      8          6           0        1.881819    0.749764   -1.886682
      9          1           0        1.763616    1.827917   -1.986150
     10          7           0        3.133459    0.303474   -1.971040
     11          6           0        3.167158   -1.032587   -1.835997
     12          6           0        0.815784   -1.276473   -1.565295
     13          7           0       -0.314540   -1.960462   -1.376387
     14          1           0       -0.311959   -2.955757   -1.273437
     15          1           0       -1.201982   -1.501599   -1.331351
     16          1           0        6.047403   -1.839291   -2.877744
     17          1           0        5.695800   -0.414132   -2.164054
     18          1           0        6.216385   -1.670981   -1.263263
     19          7           0        5.199385    2.341045    0.695999
     20          6           0        3.848006    2.127212    0.822835
     21          6           0        5.830645    3.629076    0.345031
     22          7           0        0.589648    3.323751    0.708285
     23          1           0       -0.333107    2.965241    0.847064
     24          1           0        0.668914    4.291176    0.466390
     25          7           0        2.877576    3.050407    0.649546
     26          6           0        1.672676    2.543053    0.840391
     27          7           0        1.434209    1.232161    1.175373
     28          1           0        0.479877    0.931708    1.301641
     29          6           0        2.417336    0.264847    1.358796
     30          8           0        2.095264   -0.891050    1.660315
     31          6           0        3.717027    0.794962    1.157144
     32          7           0        4.961147    0.184690    1.238545
     33          6           0        5.807902    1.137825    0.957949
     34          1           0        6.891316    1.017015    0.928020
     35          1           0        6.354306    3.526231   -0.499963
     36          1           0        5.121526    4.320673    0.214221
     37          1           0        6.441369    3.914818    1.082708
     38          1           0       -4.500055   -0.084060    1.156033
     39          1           0       -4.369056    0.058846    2.907337
     40          1           0       -3.320151    1.019486    1.864117
     41          1           0       -2.571431   -4.354607    2.246611
     42          6           0       -2.264627   -3.314190    2.138763
     43          8           0        0.049614   -3.818172    2.006785
     44          6           0       -0.873575   -3.004226    2.009417
     45          1           0        0.377872   -1.400539    1.784959
     46          7           0       -0.594361   -1.658790    1.878757
     47          8           0       -1.151932    0.538347    1.741183
     48          6           0       -1.496052   -0.624282    1.861789
     49          1           0       -4.237378   -2.509622    2.220685
     50          6           0       -3.167819   -2.326932    2.125764
     51          6           0       -3.817593    0.067921    1.978964
     52          7           0       -2.817654   -1.003395    1.991582
     53          1           0       -5.979935    4.238202   -1.612108
     54          1           0       -4.608995    4.113697   -0.736258
     55          1           0       -6.058604    4.121933    0.013843
     56          1           0       -3.873192   -2.864962   -1.197077
     57          1           0       -5.510578   -2.388441   -1.241683
     58          7           0       -4.547092   -2.126314   -1.176878
     59          6           0       -4.178384   -0.848250   -1.068351
     60          6           0       -4.551893    1.496979   -0.919537
     61          7           0       -3.250694    1.819531   -0.834245
     62          1           0       -1.420966    0.896376   -0.812164
     63          6           0       -2.494568    0.724339   -0.875856
     64          7           0       -2.861951   -0.556597   -0.984522
     65          1           0       -7.745971    1.982712   -1.038100
     66          6           0       -6.741521    1.558817   -1.020090
     67          7           0       -6.471384    0.278738   -1.098134
     68          6           0       -5.086465    0.225630   -1.035534
     69          6           0       -5.563486    3.824426   -0.802575
     70          7           0       -5.626867    2.353912   -0.910144
 ---------------------------------------------------------------------
 Rotational constants (GHZ):           0.1365535           0.0550032           0.0488373
 Leave Link  202 at Tue Jan 23 18:37:47 2018, MaxMem=  4294967296 cpu:               0.3 elap:               0.0
 (Enter /share/apps/g16/l301.exe)
 Standard basis: CC-pVDZ (5D, 7F)
 Ernie: Thresh=  0.10000D-02 Tol=  0.10000D-05 Strict=F.
 Ernie:  86 primitive shells out of 1081 were deleted.
 There are   780 symmetry adapted cartesian basis functions of A   symmetry.
 There are   737 symmetry adapted basis functions of A   symmetry.
   737 basis functions,  1608 primitive gaussians,   780 cartesian basis functions
   154 alpha electrons      154 beta electrons
       nuclear repulsion energy      5486.4231226798 Hartrees.
 IExCor= 4639 DFT=T Ex+Corr=wB97XD ExCW=0 ScaHFX=  1.000000
 ScaDFX=  1.000000  1.000000  1.000000  1.000000 ScalE2=  1.000000  1.000000
 IRadAn=      5 IRanWt=     -1 IRanGd=            0 ICorTp=0 IEmpDi=121
 HFx  wShort=  0.000000 wLong=  0.200000 cFull=  0.222036 cShort=  0.000000 cLong=  0.777964
 DFx  wShort=  0.000000 wLong=  0.200000 cFull=  0.000000 cShort=  0.000000 cLong=  1.000000
 NAtoms=   70 NActive=   70 NUniq=   70 SFac= 1.00D+00 NAtFMM=   60 NAOKFM=T Big=T
 Integral buffers will be    131072 words long.
 Raffenetti 2 integral format.
 Two-electron integral symmetry is turned on.
 R6Disp:  Grimme-D2 Dispersion energy=       -0.0708250011 Hartrees.
 Nuclear repulsion after empirical dispersion term =     5486.3522976786 Hartrees.
 Leave Link  301 at Tue Jan 23 18:37:47 2018, MaxMem=  4294967296 cpu:               2.1 elap:               0.1
 (Enter /share/apps/g16/l302.exe)
 NPDir=0 NMtPBC=     1 NCelOv=     1 NCel=       1 NClECP=     1 NCelD=      1
         NCelK=      1 NCelE2=     1 NClLst=     1 CellRange=     0.0.
 One-electron integrals computed using PRISM.
 One-electron integral symmetry used in STVInt
 NBasis=   737 RedAO= T EigKep=  6.66D-04  NBF=   737
 NBsUse=   737 1.00D-06 EigRej= -1.00D+00 NBFU=   737
 Precomputing XC quadrature grid using
 IXCGrd= 4 IRadAn=           5 IRanWt=          -1 IRanGd=           0 AccXCQ= 0.00D+00.
 Generated NRdTot=       0 NPtTot=           0 NUsed=           0 NTot=          32
 NSgBfM=   760   760   760   760   760 MxSgAt=    70 MxSgA2=    70.
 Leave Link  302 at Tue Jan 23 18:37:51 2018, MaxMem=  4294967296 cpu:             132.8 elap:               4.2
 (Enter /share/apps/g16/l303.exe)
 DipDrv:  MaxL=1.
 Leave Link  303 at Tue Jan 23 18:37:52 2018, MaxMem=  4294967296 cpu:              12.7 elap:               0.4
 (Enter /share/apps/g16/l401.exe)
 ExpMin= 1.22D-01 ExpMax= 1.17D+04 ExpMxC= 4.01D+02 IAcc=3 IRadAn=         5 AccDes= 0.00D+00
 Harris functional with IExCor= 4639 and IRadAn=       5 diagonalized for initial guess.
 HarFok:  IExCor= 4639 AccDes= 0.00D+00 IRadAn=         5 IDoV= 1 UseB2=F ITyADJ=14
 ICtDFT=  3500011 ScaDFX=  1.000000  1.000000  1.000000  1.000000
 FoFCou: FMM=F IPFlag=           0 FMFlag=      100000 FMFlg1=        2001
         NFxFlg=           0 DoJE=T BraDBF=F KetDBF=T FulRan=T
         wScrn=  0.000000 ICntrl=       500 IOpCl=  0 I1Cent=   200000004 NGrid=           0
         NMat0=    1 NMatS0=      1 NMatT0=    0 NMatD0=    1 NMtDS0=    0 NMtDT0=    0
 Petite list used in FoFCou.
 Harris En= -1963.88432661473    
 JPrj=0 DoOrth=F DoCkMO=F.
 Leave Link  401 at Tue Jan 23 18:38:04 2018, MaxMem=  4294967296 cpu:             398.5 elap:              12.5
 (Enter /share/apps/g16/l502.exe)
 Integral symmetry usage will be decided dynamically.
 Closed shell SCF:
 Using DIIS extrapolation, IDIIS=  1040.
 NGot=  4294967296 LenX=  4293717438 LenY=  4293108258
 Requested convergence on RMS density matrix=1.00D-08 within  20 cycles.
 Requested convergence on MAX density matrix=1.00D-06.
 Requested convergence on             energy=1.00D-06.
 No special actions if energy rises.
 Fock matrices will be formed incrementally for  20 cycles.
 Integral accuracy reduced to 1.0D-05 until final iterations.

 Cycle   1  Pass 0  IDiag  1:
 FoFJK:  IHMeth= 1 ICntrl=       0 DoSepK=T KAlg= 0 I1Cent=           0 FoldK=F
 IRaf=         1 NMat=       1 IRICut=       1 DoRegI=T DoRafI=F ISym2E= 0 IDoP0=0 IntGTp=1.
 FoFCou: FMM=T IPFlag=           0 FMFlag=      100000 FMFlg1=        2001
         NFxFlg=           0 DoJE=T BraDBF=F KetDBF=F FulRan=T
         wScrn=  0.000000 ICntrl=       500 IOpCl=  0 I1Cent=           0 NGrid=           0
         NMat0=    1 NMatS0=      1 NMatT0=    0 NMatD0=    1 NMtDS0=    0 NMtDT0=    0
 Symmetry not used in FoFCou.
 FMM levels:  10  Number of levels for PrismC:   9
 E= -2048.31826071604    
 DIIS: error= 2.31D-02 at cycle   1 NSaved=   1.
 NSaved= 1 IEnMin= 1 EnMin= -2048.31826071604     IErMin= 1 ErrMin= 2.31D-02
 ErrMax= 2.31D-02  0.00D+00 EMaxC= 1.00D-01 BMatC= 8.28D-01 BMatP= 8.28D-01
 IDIUse=3 WtCom= 7.69D-01 WtEn= 2.31D-01
 Coeff-Com:  0.100D+01
 Coeff-En:   0.100D+01
 Coeff:      0.100D+01
 Gap=     0.264 Goal=   None    Shift=    0.000
 GapD=    0.264 DampG=1.000 DampE=0.500 DampFc=0.5000 IDamp=-1.
 Damping current iteration by 5.00D-01
 RMSDP=1.54D-03 MaxDP=1.32D-01              OVMax= 1.81D-01

 Cycle   2  Pass 0  IDiag  1:
 RMSU=  7.67D-04    CP:  9.98D-01
 E= -2048.51598014428     Delta-E=       -0.197719428239 Rises=F Damp=T
 DIIS: error= 1.28D-02 at cycle   2 NSaved=   2.
 NSaved= 2 IEnMin= 2 EnMin= -2048.51598014428     IErMin= 2 ErrMin= 1.28D-02
 ErrMax= 1.28D-02  0.00D+00 EMaxC= 1.00D-01 BMatC= 1.44D-01 BMatP= 8.28D-01
 IDIUse=3 WtCom= 8.72D-01 WtEn= 1.28D-01
 Coeff-Com: -0.211D+00 0.121D+01
 Coeff-En:   0.000D+00 0.100D+01
 Coeff:     -0.184D+00 0.118D+01
 Gap=     0.289 Goal=   None    Shift=    0.000
 RMSDP=5.82D-04 MaxDP=3.62D-02 DE=-1.98D-01 OVMax= 1.62D-01

 Cycle   3  Pass 0  IDiag  1:
 RMSU=  5.63D-04    CP:  9.94D-01  1.18D+00
 E= -2048.69527559897     Delta-E=       -0.179295454694 Rises=F Damp=F
 DIIS: error= 9.72D-03 at cycle   3 NSaved=   3.
 NSaved= 3 IEnMin= 3 EnMin= -2048.69527559897     IErMin= 3 ErrMin= 9.72D-03
 ErrMax= 9.72D-03  0.00D+00 EMaxC= 1.00D-01 BMatC= 5.91D-02 BMatP= 1.44D-01
 IDIUse=3 WtCom= 9.03D-01 WtEn= 9.72D-02
 Coeff-Com: -0.232D+00 0.547D+00 0.686D+00
 Coeff-En:   0.000D+00 0.000D+00 0.100D+01
 Coeff:     -0.210D+00 0.493D+00 0.716D+00
 Gap=     0.285 Goal=   None    Shift=    0.000
 RMSDP=3.42D-04 MaxDP=3.70D-02 DE=-1.79D-01 OVMax= 7.92D-02

 Cycle   4  Pass 0  IDiag  1:
 RMSU=  1.96D-04    CP:  9.94D-01  1.46D+00  6.73D-01
 E= -2048.73866194136     Delta-E=       -0.043386342382 Rises=F Damp=F
 DIIS: error= 4.06D-03 at cycle   4 NSaved=   4.
 NSaved= 4 IEnMin= 4 EnMin= -2048.73866194136     IErMin= 4 ErrMin= 4.06D-03
 ErrMax= 4.06D-03  0.00D+00 EMaxC= 1.00D-01 BMatC= 9.43D-03 BMatP= 5.91D-02
 IDIUse=3 WtCom= 9.59D-01 WtEn= 4.06D-02
 Coeff-Com: -0.927D-01 0.179D+00 0.386D+00 0.528D+00
 Coeff-En:   0.000D+00 0.000D+00 0.789D-01 0.921D+00
 Coeff:     -0.889D-01 0.172D+00 0.373D+00 0.544D+00
 Gap=     0.288 Goal=   None    Shift=    0.000
 RMSDP=1.26D-04 MaxDP=1.40D-02 DE=-4.34D-02 OVMax= 1.71D-02

 Cycle   5  Pass 0  IDiag  1:
 RMSU=  6.15D-05    CP:  9.94D-01  1.43D+00  8.11D-01  6.24D-01
 E= -2048.74610072126     Delta-E=       -0.007438779903 Rises=F Damp=F
 DIIS: error= 5.54D-04 at cycle   5 NSaved=   5.
 NSaved= 5 IEnMin= 5 EnMin= -2048.74610072126     IErMin= 5 ErrMin= 5.54D-04
 ErrMax= 5.54D-04  0.00D+00 EMaxC= 1.00D-01 BMatC= 3.13D-04 BMatP= 9.43D-03
 IDIUse=3 WtCom= 9.94D-01 WtEn= 5.54D-03
 Coeff-Com: -0.239D-01 0.408D-01 0.127D+00 0.248D+00 0.608D+00
 Coeff-En:   0.000D+00 0.000D+00 0.000D+00 0.000D+00 0.100D+01
 Coeff:     -0.237D-01 0.405D-01 0.126D+00 0.246D+00 0.611D+00
 Gap=     0.286 Goal=   None    Shift=    0.000
 RMSDP=2.53D-05 MaxDP=2.82D-03 DE=-7.44D-03 OVMax= 4.16D-03

 Failed to achieve initial convergence to 1.0D-08 in  6 cycles.
 Switch to full accuracy anyway.
 Cycle   6  Pass 1  IDiag  1:
 E= -2048.74640273199     Delta-E=       -0.000302010736 Rises=F Damp=F
 DIIS: error= 2.27D-04 at cycle   1 NSaved=   1.
 NSaved= 1 IEnMin= 1 EnMin= -2048.74640273199     IErMin= 1 ErrMin= 2.27D-04
 ErrMax= 2.27D-04  0.00D+00 EMaxC= 1.00D-01 BMatC= 7.54D-05 BMatP= 7.54D-05
 IDIUse=3 WtCom= 9.98D-01 WtEn= 2.27D-03
 Coeff-Com:  0.100D+01
 Coeff-En:   0.100D+01
 Coeff:      0.100D+01
 Gap=     0.286 Goal=   None    Shift=    0.000
 RMSDP=2.53D-05 MaxDP=2.82D-03 DE=-3.02D-04 OVMax= 2.16D-03

 Cycle   7  Pass 1  IDiag  1:
 RMSU=  1.08D-04    CP:  1.00D+00
 E= -2048.74645172832     Delta-E=       -0.000048996323 Rises=F Damp=F
 DIIS: error= 2.88D-04 at cycle   2 NSaved=   2.
 NSaved= 2 IEnMin= 2 EnMin= -2048.74645172832     IErMin= 1 ErrMin= 2.27D-04
 ErrMax= 2.88D-04  0.00D+00 EMaxC= 1.00D-01 BMatC= 5.15D-05 BMatP= 7.54D-05
 IDIUse=3 WtCom= 9.97D-01 WtEn= 2.88D-03
 Coeff-Com:  0.437D+00 0.563D+00
 Coeff-En:   0.637D-01 0.936D+00
 Coeff:      0.436D+00 0.564D+00
 Gap=     0.286 Goal=   None    Shift=    0.000
 RMSDP=1.10D-05 MaxDP=1.58D-03 DE=-4.90D-05 OVMax= 1.78D-03

 Cycle   8  Pass 1  IDiag  1:
 RMSU=  1.08D-05    CP:  1.00D+00  1.02D+00
 E= -2048.74648751797     Delta-E=       -0.000035789650 Rises=F Damp=F
 DIIS: error= 1.48D-04 at cycle   3 NSaved=   3.
 NSaved= 3 IEnMin= 3 EnMin= -2048.74648751797     IErMin= 3 ErrMin= 1.48D-04
 ErrMax= 1.48D-04  0.00D+00 EMaxC= 1.00D-01 BMatC= 1.01D-05 BMatP= 5.15D-05
 IDIUse=3 WtCom= 9.99D-01 WtEn= 1.48D-03
 Coeff-Com: -0.188D-01 0.293D+00 0.726D+00
 Coeff-En:   0.000D+00 0.109D+00 0.891D+00
 Coeff:     -0.187D-01 0.293D+00 0.726D+00
 Gap=     0.286 Goal=   None    Shift=    0.000
 RMSDP=5.55D-06 MaxDP=5.82D-04 DE=-3.58D-05 OVMax= 5.43D-04

 Cycle   9  Pass 1  IDiag  1:
 RMSU=  3.79D-06    CP:  1.00D+00  1.05D+00  7.76D-01
 E= -2048.74649639735     Delta-E=       -0.000008879388 Rises=F Damp=F
 DIIS: error= 3.37D-05 at cycle   4 NSaved=   4.
 NSaved= 4 IEnMin= 4 EnMin= -2048.74649639735     IErMin= 4 ErrMin= 3.37D-05
 ErrMax= 3.37D-05  0.00D+00 EMaxC= 1.00D-01 BMatC= 4.49D-07 BMatP= 1.01D-05
 IDIUse=1 WtCom= 1.00D+00 WtEn= 0.00D+00
 Coeff-Com: -0.310D-01 0.787D-01 0.256D+00 0.696D+00
 Coeff:     -0.310D-01 0.787D-01 0.256D+00 0.696D+00
 Gap=     0.286 Goal=   None    Shift=    0.000
 RMSDP=1.37D-06 MaxDP=1.38D-04 DE=-8.88D-06 OVMax= 5.06D-04

 Cycle  10  Pass 1  IDiag  1:
 RMSU=  1.22D-06    CP:  1.00D+00  1.05D+00  8.03D-01  1.12D+00
 E= -2048.74649716550     Delta-E=       -0.000000768144 Rises=F Damp=F
 DIIS: error= 1.25D-05 at cycle   5 NSaved=   5.
 NSaved= 5 IEnMin= 5 EnMin= -2048.74649716550     IErMin= 5 ErrMin= 1.25D-05
 ErrMax= 1.25D-05  0.00D+00 EMaxC= 1.00D-01 BMatC= 1.03D-07 BMatP= 4.49D-07
 IDIUse=1 WtCom= 1.00D+00 WtEn= 0.00D+00
 Coeff-Com: -0.250D-02-0.504D-01-0.127D+00 0.183D+00 0.997D+00
 Coeff:     -0.250D-02-0.504D-01-0.127D+00 0.183D+00 0.997D+00
 Gap=     0.286 Goal=   None    Shift=    0.000
 RMSDP=1.16D-06 MaxDP=7.44D-05 DE=-7.68D-07 OVMax= 2.47D-04

 Cycle  11  Pass 1  IDiag  1:
 RMSU=  4.74D-07    CP:  1.00D+00  1.05D+00  8.08D-01  1.39D+00  1.18D+00
 E= -2048.74649739134     Delta-E=       -0.000000225837 Rises=F Damp=F
 DIIS: error= 9.36D-06 at cycle   6 NSaved=   6.
 NSaved= 6 IEnMin= 6 EnMin= -2048.74649739134     IErMin= 6 ErrMin= 9.36D-06
 ErrMax= 9.36D-06  0.00D+00 EMaxC= 1.00D-01 BMatC= 2.76D-08 BMatP= 1.03D-07
 IDIUse=1 WtCom= 1.00D+00 WtEn= 0.00D+00
 Coeff-Com:  0.453D-02-0.400D-01-0.114D+00-0.775D-02 0.543D+00 0.615D+00
 Coeff:      0.453D-02-0.400D-01-0.114D+00-0.775D-02 0.543D+00 0.615D+00
 Gap=     0.286 Goal=   None    Shift=    0.000
 RMSDP=3.41D-07 MaxDP=3.67D-05 DE=-2.26D-07 OVMax= 1.23D-04

 Cycle  12  Pass 1  IDiag  1:
 RMSU=  1.80D-07    CP:  1.00D+00  1.05D+00  8.09D-01  1.45D+00  1.31D+00
                    CP:  8.96D-01
 E= -2048.74649742837     Delta-E=       -0.000000037032 Rises=F Damp=F
 DIIS: error= 1.06D-06 at cycle   7 NSaved=   7.
 NSaved= 7 IEnMin= 7 EnMin= -2048.74649742837     IErMin= 7 ErrMin= 1.06D-06
 ErrMax= 1.06D-06  0.00D+00 EMaxC= 1.00D-01 BMatC= 8.12D-10 BMatP= 2.76D-08
 IDIUse=1 WtCom= 1.00D+00 WtEn= 0.00D+00
 Coeff-Com:  0.113D-02-0.679D-02-0.216D-01-0.811D-02 0.671D-01 0.147D+00
 Coeff-Com:  0.821D+00
 Coeff:      0.113D-02-0.679D-02-0.216D-01-0.811D-02 0.671D-01 0.147D+00
 Coeff:      0.821D+00
 Gap=     0.286 Goal=   None    Shift=    0.000
 RMSDP=7.86D-08 MaxDP=5.18D-06 DE=-3.70D-08 OVMax= 2.24D-05

 Cycle  13  Pass 1  IDiag  1:
 RMSU=  5.01D-08    CP:  1.00D+00  1.05D+00  8.09D-01  1.46D+00  1.33D+00
                    CP:  9.83D-01  1.11D+00
 E= -2048.74649743023     Delta-E=       -0.000000001864 Rises=F Damp=F
 DIIS: error= 5.40D-07 at cycle   8 NSaved=   8.
 NSaved= 8 IEnMin= 8 EnMin= -2048.74649743023     IErMin= 8 ErrMin= 5.40D-07
 ErrMax= 5.40D-07  0.00D+00 EMaxC= 1.00D-01 BMatC= 3.10D-10 BMatP= 8.12D-10
 IDIUse=1 WtCom= 1.00D+00 WtEn= 0.00D+00
 Coeff-Com: -0.677D-03 0.772D-02 0.204D-01-0.359D-03-0.117D+00-0.920D-01
 Coeff-Com:  0.410D+00 0.772D+00
 Coeff:     -0.677D-03 0.772D-02 0.204D-01-0.359D-03-0.117D+00-0.920D-01
 Coeff:      0.410D+00 0.772D+00
 Gap=     0.286 Goal=   None    Shift=    0.000
 RMSDP=4.78D-08 MaxDP=2.91D-06 DE=-1.86D-09 OVMax= 1.21D-05

 Cycle  14  Pass 1  IDiag  1:
 RMSU=  2.69D-08    CP:  1.00D+00  1.05D+00  8.08D-01  1.46D+00  1.34D+00
                    CP:  1.03D+00  1.27D+00  1.08D+00
 E= -2048.74649743063     Delta-E=       -0.000000000402 Rises=F Damp=F
 DIIS: error= 2.10D-07 at cycle   9 NSaved=   9.
 NSaved= 9 IEnMin= 9 EnMin= -2048.74649743063     IErMin= 9 ErrMin= 2.10D-07
 ErrMax= 2.10D-07  0.00D+00 EMaxC= 1.00D-01 BMatC= 3.10D-11 BMatP= 3.10D-10
 IDIUse=1 WtCom= 1.00D+00 WtEn= 0.00D+00
 Coeff-Com: -0.420D-03 0.415D-02 0.113D-01 0.124D-02-0.573D-01-0.556D-01
 Coeff-Com:  0.853D-01 0.317D+00 0.694D+00
 Coeff:     -0.420D-03 0.415D-02 0.113D-01 0.124D-02-0.573D-01-0.556D-01
 Coeff:      0.853D-01 0.317D+00 0.694D+00
 Gap=     0.286 Goal=   None    Shift=    0.000
 RMSDP=1.31D-08 MaxDP=7.98D-07 DE=-4.02D-10 OVMax= 3.48D-06

 Cycle  15  Pass 1  IDiag  1:
 RMSU=  9.02D-09    CP:  1.00D+00  1.05D+00  8.08D-01  1.46D+00  1.34D+00
                    CP:  1.03D+00  1.29D+00  1.22D+00  1.10D+00
 E= -2048.74649743073     Delta-E=       -0.000000000097 Rises=F Damp=F
 DIIS: error= 6.09D-08 at cycle  10 NSaved=  10.
 NSaved=10 IEnMin=10 EnMin= -2048.74649743073     IErMin=10 ErrMin= 6.09D-08
 ErrMax= 6.09D-08  0.00D+00 EMaxC= 1.00D-01 BMatC= 4.91D-12 BMatP= 3.10D-11
 IDIUse=1 WtCom= 1.00D+00 WtEn= 0.00D+00
 Coeff-Com: -0.195D-05-0.225D-03-0.446D-03 0.162D-03 0.464D-02 0.153D-03
 Coeff-Com: -0.541D-01-0.557D-01 0.255D+00 0.851D+00
 Coeff:     -0.195D-05-0.225D-03-0.446D-03 0.162D-03 0.464D-02 0.153D-03
 Coeff:     -0.541D-01-0.557D-01 0.255D+00 0.851D+00
 Gap=     0.286 Goal=   None    Shift=    0.000
 RMSDP=6.79D-09 MaxDP=3.83D-07 DE=-9.73D-11 OVMax= 1.63D-06

 SCF Done:  E(RwB97XD) =  -2048.74649743     A.U. after   15 cycles
            NFock= 15  Conv=0.68D-08     -V/T= 2.0054
 KE= 2.037736124130D+03 PE=-1.575327586073D+04 EE= 6.180440941490D+03
 Leave Link  502 at Tue Jan 23 18:49:19 2018, MaxMem=  4294967296 cpu:           20853.8 elap:             674.6
 (Enter /share/apps/g16/l601.exe)
 Copying SCF densities to generalized density rwf, IOpCl= 0 IROHF=0.

 **********************************************************************

            Population analysis using the SCF density.

 **********************************************************************

 Orbital symmetries:
       Occupied  (A) (A) (A) (A) (A) (A) (A) (A) (A) (A) (A) (A)
                 (A) (A) (A) (A) (A) (A) (A) (A) (A) (A) (A) (A)
                 (A) (A) (A) (A) (A) (A) (A) (A) (A) (A) (A) (A)
                 (A) (A) (A) (A) (A) (A) (A) (A) (A) (A) (A) (A)
                 (A) (A) (A) (A) (A) (A) (A) (A) (A) (A) (A) (A)
                 (A) (A) (A) (A) (A) (A) (A) (A) (A) (A) (A) (A)
                 (A) (A) (A) (A) (A) (A) (A) (A) (A) (A) (A) (A)
                 (A) (A) (A) (A) (A) (A) (A) (A) (A) (A) (A) (A)
                 (A) (A) (A) (A) (A) (A) (A) (A) (A) (A) (A) (A)
                 (A) (A) (A) (A) (A) (A) (A) (A) (A) (A) (A) (A)
                 (A) (A) (A) (A) (A) (A) (A) (A) (A) (A) (A) (A)
                 (A) (A) (A) (A) (A) (A) (A) (A) (A) (A) (A) (A)
                 (A) (A) (A) (A) (A) (A) (A) (A) (A) (A)
       Virtual   (A) (A) (A) (A) (A) (A) (A) (A) (A) (A) (A) (A)
                 (A) (A) (A) (A) (A) (A) (A) (A) (A) (A) (A) (A)
                 (A) (A) (A) (A) (A) (A) (A) (A) (A) (A) (A) (A)
                 (A) (A) (A) (A) (A) (A) (A) (A) (A) (A) (A) (A)
                 (A) (A) (A) (A) (A) (A) (A) (A) (A) (A) (A) (A)
                 (A) (A) (A) (A) (A) (A) (A) (A) (A) (A) (A) (A)
                 (A) (A) (A) (A) (A) (A) (A) (A) (A) (A) (A) (A)
                 (A) (A) (A) (A) (A) (A) (A) (A) (A) (A) (A) (A)
                 (A) (A) (A) (A) (A) (A) (A) (A) (A) (A) (A) (A)
                 (A) (A) (A) (A) (A) (A) (A) (A) (A) (A) (A) (A)
                 (A) (A) (A) (A) (A) (A) (A) (A) (A) (A) (A) (A)
                 (A) (A) (A) (A) (A) (A) (A) (A) (A) (A) (A) (A)
                 (A) (A) (A) (A) (A) (A) (A) (A) (A) (A) (A) (A)
                 (A) (A) (A) (A) (A) (A) (A) (A) (A) (A) (A) (A)
                 (A) (A) (A) (A) (A) (A) (A) (A) (A) (A) (A) (A)
                 (A) (A) (A) (A) (A) (A) (A) (A) (A) (A) (A) (A)
                 (A) (A) (A) (A) (A) (A) (A) (A) (A) (A) (A) (A)
                 (A) (A) (A) (A) (A) (A) (A) (A) (A) (A) (A) (A)
                 (A) (A) (A) (A) (A) (A) (A) (A) (A) (A) (A) (A)
                 (A) (A) (A) (A) (A) (A) (A) (A) (A) (A) (A) (A)
                 (A) (A) (A) (A) (A) (A) (A) (A) (A) (A) (A) (A)
                 (A) (A) (A) (A) (A) (A) (A) (A) (A) (A) (A) (A)
                 (A) (A) (A) (A) (A) (A) (A) (A) (A) (A) (A) (A)
                 (A) (A) (A) (A) (A) (A) (A) (A) (A) (A) (A) (A)
                 (A) (A) (A) (A) (A) (A) (A) (A) (A) (A) (A) (A)
                 (A) (A) (A) (A) (A) (A) (A) (A) (A) (A) (A) (A)
                 (A) (A) (A) (A) (A) (A) (A) (A) (A) (A) (A) (A)
                 (A) (A) (A) (A) (A) (A) (A) (A) (A) (A) (A) (A)
                 (A) (A) (A) (A) (A) (A) (A) (A) (A) (A) (A) (A)
                 (A) (A) (A) (A) (A) (A) (A) (A) (A) (A) (A) (A)
                 (A) (A) (A) (A) (A) (A) (A) (A) (A) (A) (A) (A)
                 (A) (A) (A) (A) (A) (A) (A) (A) (A) (A) (A) (A)
                 (A) (A) (A) (A) (A) (A) (A) (A) (A) (A) (A) (A)
                 (A) (A) (A) (A) (A) (A) (A) (A) (A) (A) (A) (A)
                 (A) (A) (A) (A) (A) (A) (A) (A) (A) (A) (A) (A)
                 (A) (A) (A) (A) (A) (A) (A) (A) (A) (A) (A) (A)
                 (A) (A) (A) (A) (A) (A) (A) (A) (A) (A) (A) (A)
                 (A) (A) (A) (A) (A) (A) (A) (A) (A) (A) (A) (A)
                 (A) (A) (A) (A) (A) (A) (A) (A) (A) (A) (A) (A)
                 (A) (A) (A) (A) (A) (A) (A) (A) (A) (A) (A) (A)
                 (A) (A) (A) (A) (A) (A) (A) (A) (A) (A) (A) (A)
                 (A) (A) (A) (A) (A) (A) (A) (A) (A) (A) (A) (A)
                 (A) (A) (A) (A) (A) (A) (A) (A) (A) (A) (A) (A)
                 (A) (A) (A) (A) (A) (A) (A) (A) (A) (A) (A) (A)
                 (A) (A) (A) (A) (A) (A) (A) (A) (A) (A) (A) (A)
                 (A) (A) (A) (A) (A) (A) (A) (A) (A) (A) (A) (A)
                 (A) (A) (A) (A) (A) (A) (A) (A) (A) (A) (A) (A)
                 (A) (A) (A) (A) (A) (A) (A) (A) (A) (A) (A) (A)
                 (A) (A) (A) (A) (A) (A) (A)
 The electronic state is 1-A.
 Alpha  occ. eigenvalues --  -19.25130 -19.21178 -19.20524 -14.52741 -14.51558
 Alpha  occ. eigenvalues --  -14.49148 -14.48955 -14.48267 -14.47040 -14.46624
 Alpha  occ. eigenvalues --  -14.46544 -14.45663 -14.45141 -14.44989 -14.43150
 Alpha  occ. eigenvalues --  -14.41997 -14.41245 -14.41112 -14.40974 -14.40684
 Alpha  occ. eigenvalues --  -10.44658 -10.41124 -10.40718 -10.39308 -10.38229
 Alpha  occ. eigenvalues --  -10.38119 -10.37688 -10.37171 -10.36445 -10.35841
 Alpha  occ. eigenvalues --  -10.34353 -10.34067 -10.33885 -10.33705 -10.33634
 Alpha  occ. eigenvalues --  -10.33201 -10.33177 -10.33172 -10.31105 -10.30483
 Alpha  occ. eigenvalues --  -10.30132 -10.28510 -10.28134  -1.18682  -1.15558
 Alpha  occ. eigenvalues --   -1.13126  -1.12210  -1.10960  -1.10666  -1.10095
 Alpha  occ. eigenvalues --   -1.08546  -1.08417  -1.05556  -1.05347  -1.01661
 Alpha  occ. eigenvalues --   -1.01315  -1.00846  -0.99616  -0.98515  -0.97601
 Alpha  occ. eigenvalues --   -0.96723  -0.96628  -0.93047  -0.90351  -0.88142
 Alpha  occ. eigenvalues --   -0.86228  -0.84208  -0.83681  -0.82780  -0.82566
 Alpha  occ. eigenvalues --   -0.81903  -0.78143  -0.77588  -0.75426  -0.74632
 Alpha  occ. eigenvalues --   -0.73531  -0.72996  -0.72591  -0.71157  -0.70935
 Alpha  occ. eigenvalues --   -0.67402  -0.67313  -0.66382  -0.65831  -0.64765
 Alpha  occ. eigenvalues --   -0.64265  -0.63351  -0.62861  -0.62501  -0.61728
 Alpha  occ. eigenvalues --   -0.61084  -0.60763  -0.60415  -0.59895  -0.59028
 Alpha  occ. eigenvalues --   -0.58859  -0.58234  -0.56923  -0.56598  -0.55900
 Alpha  occ. eigenvalues --   -0.55655  -0.55608  -0.55536  -0.55036  -0.54102
 Alpha  occ. eigenvalues --   -0.53934  -0.53697  -0.53231  -0.53175  -0.52895
 Alpha  occ. eigenvalues --   -0.51873  -0.51667  -0.51440  -0.50473  -0.50392
 Alpha  occ. eigenvalues --   -0.50108  -0.49971  -0.49545  -0.48988  -0.48904
 Alpha  occ. eigenvalues --   -0.48724  -0.47972  -0.47886  -0.47558  -0.47020
 Alpha  occ. eigenvalues --   -0.46832  -0.45551  -0.45455  -0.44805  -0.43217
 Alpha  occ. eigenvalues --   -0.41403  -0.41132  -0.38915  -0.38238  -0.38102
 Alpha  occ. eigenvalues --   -0.37355  -0.37249  -0.37072  -0.35463  -0.35184
 Alpha  occ. eigenvalues --   -0.35028  -0.34128  -0.33545  -0.33382  -0.32912
 Alpha  occ. eigenvalues --   -0.32558  -0.32316  -0.31838  -0.31052  -0.30700
 Alpha  occ. eigenvalues --   -0.30581  -0.30478  -0.26276  -0.25224
 Alpha virt. eigenvalues --    0.03412   0.03848   0.06383   0.07883   0.08966
 Alpha virt. eigenvalues --    0.09230   0.09789   0.10156   0.10717   0.11730
 Alpha virt. eigenvalues --    0.13588   0.14286   0.14513   0.14623   0.14677
 Alpha virt. eigenvalues --    0.16003   0.16106   0.16865   0.17309   0.17832
 Alpha virt. eigenvalues --    0.18944   0.19515   0.19792   0.20143   0.20717
 Alpha virt. eigenvalues --    0.20961   0.21061   0.21229   0.21522   0.21737
 Alpha virt. eigenvalues --    0.22103   0.22858   0.22972   0.23683   0.23866
 Alpha virt. eigenvalues --    0.24024   0.24455   0.24508   0.24937   0.25431
 Alpha virt. eigenvalues --    0.25819   0.26104   0.27535   0.27758   0.28338
 Alpha virt. eigenvalues --    0.28800   0.28971   0.29971   0.30625   0.31163
 Alpha virt. eigenvalues --    0.31685   0.31992   0.32685   0.33141   0.33303
 Alpha virt. eigenvalues --    0.33826   0.34781   0.35023   0.35991   0.36611
 Alpha virt. eigenvalues --    0.36919   0.37001   0.37951   0.38591   0.39201
 Alpha virt. eigenvalues --    0.39424   0.39981   0.40708   0.41292   0.41903
 Alpha virt. eigenvalues --    0.42191   0.42583   0.42792   0.43872   0.44192
 Alpha virt. eigenvalues --    0.45603   0.45808   0.46098   0.46336   0.47013
 Alpha virt. eigenvalues --    0.47324   0.47707   0.48268   0.48679   0.49291
 Alpha virt. eigenvalues --    0.49780   0.50266   0.50558   0.50966   0.51156
 Alpha virt. eigenvalues --    0.51895   0.52119   0.52611   0.53055   0.53313
 Alpha virt. eigenvalues --    0.53826   0.54385   0.54618   0.55041   0.55110
 Alpha virt. eigenvalues --    0.55645   0.56073   0.56549   0.56679   0.57244
 Alpha virt. eigenvalues --    0.57813   0.58062   0.58494   0.58908   0.59471
 Alpha virt. eigenvalues --    0.59575   0.60281   0.60740   0.60773   0.60976
 Alpha virt. eigenvalues --    0.61715   0.62000   0.62430   0.62859   0.62983
 Alpha virt. eigenvalues --    0.63416   0.63891   0.64303   0.64653   0.65189
 Alpha virt. eigenvalues --    0.65775   0.65953   0.66216   0.66733   0.67560
 Alpha virt. eigenvalues --    0.67688   0.68538   0.68798   0.69246   0.69747
 Alpha virt. eigenvalues --    0.70404   0.70481   0.70824   0.71365   0.71922
 Alpha virt. eigenvalues --    0.72090   0.72341   0.72562   0.73249   0.73782
 Alpha virt. eigenvalues --    0.74073   0.74319   0.74702   0.75236   0.75657
 Alpha virt. eigenvalues --    0.76159   0.76450   0.76636   0.77027   0.77174
 Alpha virt. eigenvalues --    0.77320   0.77621   0.78341   0.78612   0.78854
 Alpha virt. eigenvalues --    0.79857   0.79879   0.80072   0.80969   0.81349
 Alpha virt. eigenvalues --    0.81542   0.81821   0.82239   0.82560   0.83215
 Alpha virt. eigenvalues --    0.83857   0.84219   0.84543   0.84704   0.85177
 Alpha virt. eigenvalues --    0.85901   0.86183   0.86772   0.87327   0.87596
 Alpha virt. eigenvalues --    0.87825   0.88480   0.88504   0.89267   0.89449
 Alpha virt. eigenvalues --    0.89958   0.90626   0.91522   0.91775   0.92602
 Alpha virt. eigenvalues --    0.92916   0.93307   0.93787   0.93880   0.94283
 Alpha virt. eigenvalues --    0.94564   0.94885   0.95189   0.96124   0.96792
 Alpha virt. eigenvalues --    0.96945   0.97758   0.97952   0.98353   0.98628
 Alpha virt. eigenvalues --    0.99098   0.99963   1.00246   1.00521   1.01160
 Alpha virt. eigenvalues --    1.01632   1.01845   1.02298   1.03357   1.03630
 Alpha virt. eigenvalues --    1.03767   1.04661   1.04947   1.05181   1.05559
 Alpha virt. eigenvalues --    1.06402   1.06641   1.06888   1.07188   1.07531
 Alpha virt. eigenvalues --    1.07706   1.08587   1.09624   1.09923   1.10942
 Alpha virt. eigenvalues --    1.11339   1.11744   1.12448   1.13420   1.13805
 Alpha virt. eigenvalues --    1.13972   1.14157   1.14838   1.14893   1.15220
 Alpha virt. eigenvalues --    1.16241   1.16557   1.16862   1.17056   1.17241
 Alpha virt. eigenvalues --    1.17863   1.18487   1.18889   1.19326   1.19706
 Alpha virt. eigenvalues --    1.19848   1.20207   1.20680   1.20860   1.21104
 Alpha virt. eigenvalues --    1.21303   1.21976   1.22637   1.22789   1.22914
 Alpha virt. eigenvalues --    1.23541   1.23915   1.24468   1.24546   1.24845
 Alpha virt. eigenvalues --    1.25732   1.26339   1.26983   1.27571   1.28119
 Alpha virt. eigenvalues --    1.28601   1.28718   1.29368   1.29643   1.30117
 Alpha virt. eigenvalues --    1.31119   1.31686   1.32891   1.33274   1.33600
 Alpha virt. eigenvalues --    1.34100   1.34302   1.34866   1.35121   1.36192
 Alpha virt. eigenvalues --    1.36691   1.37649   1.38645   1.39323   1.40381
 Alpha virt. eigenvalues --    1.40551   1.42340   1.42764   1.43454   1.44734
 Alpha virt. eigenvalues --    1.45148   1.46210   1.46523   1.47195   1.48223
 Alpha virt. eigenvalues --    1.49107   1.49794   1.50141   1.50679   1.51053
 Alpha virt. eigenvalues --    1.52309   1.52580   1.53079   1.53476   1.55051
 Alpha virt. eigenvalues --    1.55932   1.56325   1.56864   1.57312   1.58098
 Alpha virt. eigenvalues --    1.58463   1.59196   1.59968   1.60099   1.60727
 Alpha virt. eigenvalues --    1.61083   1.62474   1.62691   1.63460   1.63782
 Alpha virt. eigenvalues --    1.64366   1.64740   1.65087   1.65717   1.66796
 Alpha virt. eigenvalues --    1.66911   1.67762   1.68123   1.68784   1.69211
 Alpha virt. eigenvalues --    1.69505   1.69772   1.70262   1.70847   1.71657
 Alpha virt. eigenvalues --    1.72159   1.72850   1.73052   1.73337   1.73523
 Alpha virt. eigenvalues --    1.74243   1.74628   1.74847   1.75475   1.75618
 Alpha virt. eigenvalues --    1.76133   1.76448   1.76811   1.77068   1.77120
 Alpha virt. eigenvalues --    1.77590   1.77805   1.78071   1.78643   1.78806
 Alpha virt. eigenvalues --    1.79399   1.79623   1.79939   1.80059   1.80530
 Alpha virt. eigenvalues --    1.81062   1.81474   1.81570   1.82091   1.82198
 Alpha virt. eigenvalues --    1.82822   1.83346   1.84272   1.84661   1.85093
 Alpha virt. eigenvalues --    1.85874   1.86174   1.86261   1.86667   1.86838
 Alpha virt. eigenvalues --    1.87485   1.87779   1.88466   1.88863   1.89045
 Alpha virt. eigenvalues --    1.89538   1.89942   1.90104   1.90965   1.91116
 Alpha virt. eigenvalues --    1.92670   1.92956   1.93192   1.93721   1.94164
 Alpha virt. eigenvalues --    1.94702   1.95168   1.95569   1.96712   1.97953
 Alpha virt. eigenvalues --    1.98311   1.98664   1.99959   2.00601   2.01342
 Alpha virt. eigenvalues --    2.01814   2.02145   2.02743   2.03133   2.04038
 Alpha virt. eigenvalues --    2.04528   2.05516   2.05744   2.06377   2.07812
 Alpha virt. eigenvalues --    2.08282   2.08403   2.08910   2.09607   2.10070
 Alpha virt. eigenvalues --    2.10573   2.11937   2.12086   2.12590   2.13575
 Alpha virt. eigenvalues --    2.14226   2.15305   2.15329   2.16143   2.16874
 Alpha virt. eigenvalues --    2.17398   2.18014   2.20162   2.20941   2.21579
 Alpha virt. eigenvalues --    2.21887   2.22378   2.22748   2.23416   2.23897
 Alpha virt. eigenvalues --    2.24289   2.24919   2.25334   2.26356   2.26819
 Alpha virt. eigenvalues --    2.27172   2.28376   2.28525   2.29362   2.29978
 Alpha virt. eigenvalues --    2.30272   2.30425   2.31828   2.31905   2.32302
 Alpha virt. eigenvalues --    2.33066   2.33695   2.34195   2.34370   2.34689
 Alpha virt. eigenvalues --    2.34922   2.35680   2.36479   2.36603   2.37048
 Alpha virt. eigenvalues --    2.38222   2.38691   2.39493   2.39769   2.40861
 Alpha virt. eigenvalues --    2.41912   2.42349   2.42824   2.43164   2.44132
 Alpha virt. eigenvalues --    2.44548   2.44963   2.45163   2.45436   2.46158
 Alpha virt. eigenvalues --    2.47538   2.48962   2.50381   2.50409   2.51379
 Alpha virt. eigenvalues --    2.52048   2.53515   2.54719   2.55860   2.55986
 Alpha virt. eigenvalues --    2.57253   2.57807   2.58126   2.59253   2.59625
 Alpha virt. eigenvalues --    2.61530   2.62626   2.62721   2.63692   2.64086
 Alpha virt. eigenvalues --    2.64418   2.65106   2.65278   2.65420   2.66527
 Alpha virt. eigenvalues --    2.67043   2.67312   2.68702   2.69529   2.70159
 Alpha virt. eigenvalues --    2.70536   2.70914   2.71575   2.71618   2.71892
 Alpha virt. eigenvalues --    2.73326   2.74363   2.75655   2.76068   2.76794
 Alpha virt. eigenvalues --    2.77145   2.77613   2.77927   2.79090   2.79214
 Alpha virt. eigenvalues --    2.79355   2.80084   2.80156   2.80631   2.81639
 Alpha virt. eigenvalues --    2.81933   2.82532   2.82662   2.83830   2.84591
 Alpha virt. eigenvalues --    2.85167   2.85426   2.86363   2.86932   2.86998
 Alpha virt. eigenvalues --    2.87672   2.88300   2.89280   2.91982   2.93991
 Alpha virt. eigenvalues --    2.94862   2.95341   2.96687   2.98418   2.99047
 Alpha virt. eigenvalues --    2.99678   3.00828   3.02785   3.04245   3.05022
 Alpha virt. eigenvalues --    3.06374   3.08753   3.10295   3.12227   3.14507
 Alpha virt. eigenvalues --    3.15186   3.15744   3.16810   3.18883   3.20305
 Alpha virt. eigenvalues --    3.20651   3.22930   3.24330   3.24564   3.25484
 Alpha virt. eigenvalues --    3.44186   3.47173   3.47812   3.49012   3.50922
 Alpha virt. eigenvalues --    3.52698   3.54907   3.56542   3.58010   3.60583
 Alpha virt. eigenvalues --    3.63684   3.71391   3.75228
          Condensed to atoms (all electrons):
 Mulliken charges:
               1
     1  N   -0.308892
     2  C    0.182969
     3  C    0.066945
     4  N   -0.260775
     5  C    0.148133
     6  H    0.028728
     7  N   -0.288533
     8  C    0.119887
     9  H    0.015943
    10  N   -0.271705
    11  C    0.250254
    12  C    0.077716
    13  N   -0.069010
    14  H    0.112348
    15  H    0.081966
    16  H    0.020015
    17  H    0.029754
    18  H    0.033618
    19  N   -0.310337
    20  C    0.261315
    21  C    0.182101
    22  N   -0.116618
    23  H    0.123687
    24  H    0.117143
    25  N   -0.304178
    26  C    0.216014
    27  N   -0.121910
    28  H    0.117675
    29  C    0.165441
    30  O   -0.318671
    31  C    0.003694
    32  N   -0.233655
    33  C    0.118675
    34  H    0.021529
    35  H    0.026243
    36  H    0.030105
    37  H    0.024661
    38  H    0.067893
    39  H    0.055384
    40  H    0.078037
    41  H    0.025850
    42  C   -0.117885
    43  O   -0.261875
    44  C    0.172906
    45  H    0.135380
    46  N   -0.126841
    47  O   -0.348674
    48  C    0.351709
    49  H    0.041593
    50  C    0.165422
    51  C    0.037113
    52  N   -0.277113
    53  H    0.034561
    54  H    0.039500
    55  H    0.031251
    56  H    0.118595
    57  H    0.120810
    58  N   -0.064637
    59  C    0.067497
    60  C    0.232299
    61  N   -0.266050
    62  H    0.021210
    63  C    0.174616
    64  N   -0.305661
    65  H    0.040612
    66  C    0.140033
    67  N   -0.256782
    68  C    0.029825
    69  C    0.180973
    70  N   -0.309825
 Sum of Mulliken charges =  -0.00000
 Mulliken charges with hydrogens summed into heavy atoms:
               1
     1  N   -0.308892
     2  C    0.266355
     3  C    0.066945
     4  N   -0.260775
     5  C    0.176861
     7  N   -0.288533
     8  C    0.135830
    10  N   -0.271705
    11  C    0.250254
    12  C    0.077716
    13  N    0.125303
    19  N   -0.310337
    20  C    0.261315
    21  C    0.263110
    22  N    0.124212
    25  N   -0.304178
    26  C    0.216014
    27  N   -0.004235
    29  C    0.165441
    30  O   -0.318671
    31  C    0.003694
    32  N   -0.233655
    33  C    0.140204
    42  C   -0.092035
    43  O   -0.261875
    44  C    0.172906
    46  N    0.008539
    47  O   -0.348674
    48  C    0.351709
    50  C    0.207014
    51  C    0.238427
    52  N   -0.277113
    58  N    0.174768
    59  C    0.067497
    60  C    0.232299
    61  N   -0.266050
    63  C    0.195826
    64  N   -0.305661
    66  C    0.180646
    67  N   -0.256782
    68  C    0.029825
    69  C    0.286285
    70  N   -0.309825
 Electronic spatial extent (au):  <R**2>=          22705.5859
 Charge=             -0.0000 electrons
 Dipole moment (field-independent basis, Debye):
    X=             -8.0686    Y=              6.7458    Z=             -1.5083  Tot=             10.6246
 Quadrupole moment (field-independent basis, Debye-Ang):
   XX=           -164.9329   YY=           -219.4827   ZZ=           -252.1704
   XY=              6.6154   XZ=            -18.1243   YZ=             10.6273
 Traceless Quadrupole moment (field-independent basis, Debye-Ang):
   XX=             47.2624   YY=             -7.2874   ZZ=            -39.9751
   XY=              6.6154   XZ=            -18.1243   YZ=             10.6273
 Octapole moment (field-independent basis, Debye-Ang**2):
  XXX=             60.7909  YYY=            149.7008  ZZZ=             16.7814  XYY=           -112.3467
  XXY=            131.3099  XXZ=            -51.4531  XZZ=            -31.0608  YZZ=              7.3233
  YYZ=            -43.9393  XYZ=             54.3887
 Hexadecapole moment (field-independent basis, Debye-Ang**3):
 XXXX=         -16727.9153 YYYY=          -5921.9444 ZZZZ=          -3449.1103 XXXY=           -387.5602
 XXXZ=           -370.2983 YYYX=             20.3278 YYYZ=             92.6683 ZZZX=            -98.6368
 ZZZY=             12.9474 XXYY=          -3130.9277 XXZZ=          -3867.9918 YYZZ=          -1661.7404
 XXYZ=             75.4673 YYXZ=             29.0344 ZZXY=              4.2242
 N-N= 5.486352297679D+03 E-N=-1.575327585386D+04  KE= 2.037736124130D+03
 No NMR shielding tensors so no spin-rotation constants.
 Leave Link  601 at Tue Jan 23 18:49:21 2018, MaxMem=  4294967296 cpu:              47.4 elap:               1.7
 (Enter /share/apps/g16/l9999.exe)
 1\1\GINC-COMPUTE-0-3\SP\RwB97XD\CC-pVDZ\C23H27N17O3\SATYA\23-Jan-2018\
 0\\#p wb97xd/cc-pvdz sp scf=(maxcycles=20)\\Base pair stacking\\0,1\N,
 0,1.44222,-1.46931,-6.82135\C,0,2.53859,-0.48989,-6.95066\C,0,-0.52573
 ,-2.39871,-6.50401\N,0,0.35035,-3.43452,-6.79438\C,0,1.50091,-2.83313,
 -6.97394\H,0,2.43366,-3.34052,-7.22185\N,0,-2.47067,-1.17595,-5.97013\
 C,0,-1.70389,-0.08174,-6.01848\H,0,-2.21855,0.85613,-5.81402\N,0,-0.40
 294,0.02738,-6.28024\C,0,0.13282,-1.18148,-6.51699\C,0,-1.90188,-2.377
 02,-6.21302\N,0,-2.66564,-3.47043,-6.16522\H,0,-2.2869,-4.38028,-6.338
 27\H,0,-3.64191,-3.41744,-5.95492\H,0,2.92105,-0.53557,-7.8736\H,0,2.1
 8621,0.43018,-6.78209\H,0,3.2546,-0.69804,-6.28433\N,0,1.15352,2.02179
 ,-3.25822\C,0,0.00661,1.27579,-3.13126\C,0,1.21497,3.49715,-3.2733\N,0
 ,-3.44221,1.10093,-2.76141\H,0,-4.14052,0.39,-2.68263\H,0,-3.75612,2.0
 5034,-2.73332\N,0,-1.24682,1.76132,-3.00001\C,0,-2.14299,0.79581,-2.89
 86\N,0,-1.83714,-0.54335,-2.92358\H,0,-2.58742,-1.21191,-2.83948\C,0,-
 0.55452,-1.06562,-3.05774\O,0,-0.38678,-2.29138,-3.06861\C,0,0.419,-0.
 04042,-3.16777\N,0,1.79708,-0.11915,-3.3147\C,0,2.18872,1.1252,-3.3637
 6\H,0,3.22487,1.4461,-3.47642\H,0,1.60889,3.80719,-4.13789\H,0,0.29227
 ,3.86806,-3.17677\H,0,1.78244,3.81655,-2.51517\H,0,-6.82203,-4.02032,-
 3.02283\H,0,-6.49394,-4.25225,-1.30725\H,0,-6.03201,-2.74393,-2.09651\
 H,0,-3.33668,-7.33017,-3.23201\C,0,-3.44788,-6.2586,-3.06588\O,0,-1.15
 545,-5.7763,-3.43908\C,0,-2.29972,-5.41093,-3.17086\H,0,-1.76348,-3.44
 268,-3.00731\N,0,-2.55035,-4.073,-2.94204\O,0,-3.88087,-2.30021,-2.447
 92\C,0,-3.75777,-3.49817,-2.63342\H,0,-5.54261,-6.32851,-2.67472\C,0,-
 4.63895,-5.72738,-2.76628\C,0,-6.1274,-3.81215,-2.22269\N,0,-4.81688,-
 4.38053,-2.55016\H,0,-10.16179,-0.09686,-4.43246\H,0,-8.7256,0.12045,-
 3.68934\H,0,-9.95113,-0.61191,-2.89826\H,0,-5.5849,-5.70284,-6.07277\H
 ,0,-7.27081,-5.9049,-5.90854\N,0,-6.4699,-5.31168,-5.81995\C,0,-6.5783
 2,-4.05498,-5.38392\C,0,-7.75081,-2.14572,-4.58283\N,0,-6.65809,-1.372
 07,-4.47392\H,0,-4.63651,-1.48782,-4.79082\C,0,-5.57125,-2.04388,-4.84
 856\N,0,-5.46059,-3.30259,-5.28557\H,0,-10.88319,-2.92791,-4.414\C,0,-
 9.80262,-2.91899,-4.55967\N,0,-9.10121,-3.93607,-4.99698\C,0,-7.79853,
 -3.45922,-5.01641\C,0,-9.50861,-0.4931,-3.78722\N,0,-9.04932,-1.80269,
 -4.28924\\Version=EM64L-G16RevA.03\State=1-A\HF=-2048.7464974\RMSD=6.7
 91e-09\Dipole=-3.9713178,1.268454,0.3038792\Quadrupole=20.5709154,1.95
 59199,-22.5268354,22.5388977,-18.1447489,6.1173621\PG=C01 [X(C23H27N17
 O3)]\\@


 NATURE REVEALS EVERY SECRET ONCE.
                    - RALPH WALDO EMERSON
 Job cpu time:       0 days  5 hours 57 minutes 40.6 seconds.
 Elapsed time:       0 days  0 hours 11 minutes 34.0 seconds.
 File lengths (MBytes):  RWF=    298 Int=      0 D2E=      0 Chk=     33 Scr=      1
 Normal termination of Gaussian 16 at Tue Jan 23 18:49:21 2018.
