 Entering Gaussian System, Link 0=g16
 Input=str45.5.-0.5.com
 Output=str45.5.-0.5.log
 Initial command:
 /share/apps/g16/l1.exe "/state/partition1/scr/Gau-15924.inp" -scrdir="/state/partition1/scr/"
 Entering Link 1 = /share/apps/g16/l1.exe PID=     15925.
  
 Copyright (c) 1988,1990,1992,1993,1995,1998,2003,2009,2016,
            Gaussian, Inc.  All Rights Reserved.
  
 This is part of the Gaussian(R) 16 program.  It is based on
 the Gaussian(R) 09 system (copyright 2009, Gaussian, Inc.),
 the Gaussian(R) 03 system (copyright 2003, Gaussian, Inc.),
 the Gaussian(R) 98 system (copyright 1998, Gaussian, Inc.),
 the Gaussian(R) 94 system (copyright 1995, Gaussian, Inc.),
 the Gaussian 92(TM) system (copyright 1992, Gaussian, Inc.),
 the Gaussian 90(TM) system (copyright 1990, Gaussian, Inc.),
 the Gaussian 88(TM) system (copyright 1988, Gaussian, Inc.),
 the Gaussian 86(TM) system (copyright 1986, Carnegie Mellon
 University), and the Gaussian 82(TM) system (copyright 1983,
 Carnegie Mellon University). Gaussian is a federally registered
 trademark of Gaussian, Inc.
  
 This software contains proprietary and confidential information,
 including trade secrets, belonging to Gaussian, Inc.
  
 This software is provided under written license and may be
 used, copied, transmitted, or stored only in accord with that
 written license.
  
 The following legend is applicable only to US Government
 contracts under FAR:
  
                    RESTRICTED RIGHTS LEGEND
  
 Use, reproduction and disclosure by the US Government is
 subject to restrictions as set forth in subparagraphs (a)
 and (c) of the Commercial Computer Software - Restricted
 Rights clause in FAR 52.227-19.
  
 Gaussian, Inc.
 340 Quinnipiac St., Bldg. 40, Wallingford CT 06492
  
  
 ---------------------------------------------------------------
 Warning -- This program may not be used in any manner that
 competes with the business of Gaussian, Inc. or will provide
 assistance to any competitor of Gaussian, Inc.  The licensee
 of this program is prohibited from giving any competitor of
 Gaussian, Inc. access to this program.  By using this program,
 the user acknowledges that Gaussian, Inc. is engaged in the
 business of creating and licensing software in the field of
 computational chemistry and represents and warrants to the
 licensee that it is not a competitor of Gaussian, Inc. and that
 it will not use this program in any manner prohibited above.
 ---------------------------------------------------------------
  

 Cite this work as:
 Gaussian 16, Revision A.03,
 M. J. Frisch, G. W. Trucks, H. B. Schlegel, G. E. Scuseria, 
 M. A. Robb, J. R. Cheeseman, G. Scalmani, V. Barone, 
 G. A. Petersson, H. Nakatsuji, X. Li, M. Caricato, A. V. Marenich, 
 J. Bloino, B. G. Janesko, R. Gomperts, B. Mennucci, H. P. Hratchian, 
 J. V. Ortiz, A. F. Izmaylov, J. L. Sonnenberg, D. Williams-Young, 
 F. Ding, F. Lipparini, F. Egidi, J. Goings, B. Peng, A. Petrone, 
 T. Henderson, D. Ranasinghe, V. G. Zakrzewski, J. Gao, N. Rega, 
 G. Zheng, W. Liang, M. Hada, M. Ehara, K. Toyota, R. Fukuda, 
 J. Hasegawa, M. Ishida, T. Nakajima, Y. Honda, O. Kitao, H. Nakai, 
 T. Vreven, K. Throssell, J. A. Montgomery, Jr., J. E. Peralta, 
 F. Ogliaro, M. J. Bearpark, J. J. Heyd, E. N. Brothers, K. N. Kudin, 
 V. N. Staroverov, T. A. Keith, R. Kobayashi, J. Normand, 
 K. Raghavachari, A. P. Rendell, J. C. Burant, S. S. Iyengar, 
 J. Tomasi, M. Cossi, J. M. Millam, M. Klene, C. Adamo, R. Cammi, 
 J. W. Ochterski, R. L. Martin, K. Morokuma, O. Farkas, 
 J. B. Foresman, and D. J. Fox, Gaussian, Inc., Wallingford CT, 2016.
 
 ******************************************
 Gaussian 16:  EM64L-G16RevA.03 25-Dec-2016
                24-Jan-2018 
 ******************************************
 %nprocshared=32
 Will use up to   32 processors via shared memory.
 %mem=32GB
 %chk=allatoms_t.chk
 ---------------------------------------
 #p wb97xd/cc-pvdz sp scf=(maxcycles=20)
 ---------------------------------------
 1/38=1,172=1/1;
 2/12=2,17=6,18=5,40=1/2;
 3/5=16,11=2,25=1,30=1,74=-58/1,2,3;
 4//1;
 5/5=2,7=20,38=5/2;
 6/7=2,8=2,9=2,10=2,28=1/1;
 99/5=1,9=1/99;
 Leave Link    1 at Wed Jan 24 04:29:42 2018, MaxMem=  4294967296 cpu:               2.7 elap:               0.1
 (Enter /share/apps/g16/l101.exe)
 ------------------
 Base pair stacking
 ------------------
 Symbolic Z-matrix:
 Charge =  0 Multiplicity = 1
 N                     6.81673   1.80797  -5.94282 
 C                     7.93686   2.76493  -6.02971 
 C                     4.81185   0.90395  -5.96512 
 N                     5.69437  -0.11701  -5.64336 
 C                     6.86691   0.46849  -5.64281 
 H                     7.81063  -0.03383  -5.42832 
 N                     2.84519   2.11317  -6.4478 
 C                     3.6314    3.18429  -6.5966 
 H                     3.11524   4.10749  -6.85647 
 N                     4.95329   3.28574  -6.47316 
 C                     5.48901   2.09635  -6.15261 
 C                     3.41451   0.93127  -6.12519 
 N                     2.63135  -0.13908  -5.97622 
 H                     3.00969  -1.03417  -5.73772 
 H                     1.6403   -0.08277  -6.09786 
 H                     8.58106   2.4632   -6.73267 
 H                     7.58537   3.66995  -6.26743 
 H                     8.40642   2.81259  -5.1481 
 N                     2.7268    4.77744  -3.20832 
 C                     1.57405   4.03217  -3.26983 
 C                     2.80232   6.24587  -3.34506 
 N                    -1.87252   3.8496   -3.6566 
 H                    -2.57684   3.14036  -3.66901 
 H                    -2.17697   4.79368  -3.78599 
 N                     0.3267    4.51226  -3.46397 
 C                    -0.5777    3.54916  -3.47471 
 N                    -0.28503   2.2172   -3.30824 
 H                    -1.04087   1.54999  -3.33086 
 C                     0.99112   1.70061  -3.1071 
 O                     1.14692   0.48116  -2.96787 
 C                     1.97335   2.7233   -3.09313 
 N                     3.34911   2.64837  -2.92409 
 C                     3.75223   3.88772  -2.99963 
 H                     4.79027   4.20965  -2.90961 
 H                     3.38023   6.48029  -4.12601 
 H                     1.88422   6.61271  -3.48929 
 H                     3.19074   6.64025  -2.51296 
 H                    -5.1533   -1.31515  -4.18618 
 H                    -5.21461  -1.38507  -2.42663 
 H                    -4.57708   0.05025  -3.22961 
 H                    -1.73559  -4.58726  -3.31488 
 C                    -1.87186  -3.50642  -3.27668 
 O                     0.45027  -3.03222  -3.17693 
 C                    -0.72191  -2.6579   -3.2029 
 H                    -0.21877  -0.67651  -3.10664 
 N                    -1.00581  -1.30781  -3.15915 
 O                    -2.39787   0.4863   -3.13636 
 C                    -2.24677  -0.72201  -3.17911 
 H                    -4.00175  -3.56593  -3.35326 
 C                    -3.09524  -2.96466  -3.29779 
 C                    -4.65108  -1.02613  -3.27496 
 N                    -3.30537  -1.60597  -3.25112 
 H                    -4.90057   3.14946  -7.71731 
 H                    -3.753     3.66784  -6.67978 
 H                    -5.1888    3.13958  -6.11099 
 H                    -0.25981  -2.4069   -6.0877 
 H                    -1.92168  -2.64933  -6.38684 
 N                    -1.16405  -2.01074  -6.24752 
 C                    -1.35228  -0.68974  -6.27389 
 C                    -2.6394    1.29944  -6.49344 
 N                    -1.60345   2.13312  -6.30315 
 H                     0.41226   2.04691  -5.94244 
 C                    -0.4807    1.44508  -6.1058 
 N                    -0.29012   0.122    -6.07903 
 H                    -5.70107   0.42083  -7.04696 
 C                    -4.62817   0.44927  -6.85454 
 N                    -3.8662   -0.60904  -6.72391 
 C                    -2.60265  -0.08409  -6.49456 
 C                    -4.49155   3.00816  -6.81579 
 N                    -3.95136   1.63766  -6.72664 
 
 ITRead=  0  0  0  0  0  0  0  0  0  0  0  0  0  0  0  0  0  0  0  0
 ITRead=  0  0  0  0  0  0  0  0  0  0  0  0  0  0  0  0  0  0  0  0
 ITRead=  0  0  0  0  0  0  0  0  0  0  0  0  0  0  0  0  0  0  0  0
 ITRead=  0  0  0  0  0  0  0  0  0  0
 MicOpt= -1 -1 -1 -1 -1 -1 -1 -1 -1 -1 -1 -1 -1 -1 -1 -1 -1 -1 -1 -1
 MicOpt= -1 -1 -1 -1 -1 -1 -1 -1 -1 -1 -1 -1 -1 -1 -1 -1 -1 -1 -1 -1
 MicOpt= -1 -1 -1 -1 -1 -1 -1 -1 -1 -1 -1 -1 -1 -1 -1 -1 -1 -1 -1 -1
 MicOpt= -1 -1 -1 -1 -1 -1 -1 -1 -1 -1
 NAtoms=     70 NQM=       70 NQMF=       0 NMMI=      0 NMMIF=      0
                NMic=       0 NMicF=      0.
                    Isotopes and Nuclear Properties:
 (Nuclear quadrupole moments (NQMom) in fm**2, nuclear magnetic moments (NMagM)
  in nuclear magnetons)

  Atom         1           2           3           4           5           6           7           8           9          10
 IAtWgt=          14          12          12          14          12           1          14          12           1          14
 AtmWgt=  14.0030740  12.0000000  12.0000000  14.0030740  12.0000000   1.0078250  14.0030740  12.0000000   1.0078250  14.0030740
 NucSpn=           2           0           0           2           0           1           2           0           1           2
 AtZEff=  -0.0000000  -0.0000000  -0.0000000  -0.0000000  -0.0000000  -0.0000000  -0.0000000  -0.0000000  -0.0000000  -0.0000000
 NQMom=    2.0440000   0.0000000   0.0000000   2.0440000   0.0000000   0.0000000   2.0440000   0.0000000   0.0000000   2.0440000
 NMagM=    0.4037610   0.0000000   0.0000000   0.4037610   0.0000000   2.7928460   0.4037610   0.0000000   2.7928460   0.4037610
 AtZNuc=   7.0000000   6.0000000   6.0000000   7.0000000   6.0000000   1.0000000   7.0000000   6.0000000   1.0000000   7.0000000

  Atom        11          12          13          14          15          16          17          18          19          20
 IAtWgt=          12          12          14           1           1           1           1           1          14          12
 AtmWgt=  12.0000000  12.0000000  14.0030740   1.0078250   1.0078250   1.0078250   1.0078250   1.0078250  14.0030740  12.0000000
 NucSpn=           0           0           2           1           1           1           1           1           2           0
 AtZEff=  -0.0000000  -0.0000000  -0.0000000  -0.0000000  -0.0000000  -0.0000000  -0.0000000  -0.0000000  -0.0000000  -0.0000000
 NQMom=    0.0000000   0.0000000   2.0440000   0.0000000   0.0000000   0.0000000   0.0000000   0.0000000   2.0440000   0.0000000
 NMagM=    0.0000000   0.0000000   0.4037610   2.7928460   2.7928460   2.7928460   2.7928460   2.7928460   0.4037610   0.0000000
 AtZNuc=   6.0000000   6.0000000   7.0000000   1.0000000   1.0000000   1.0000000   1.0000000   1.0000000   7.0000000   6.0000000

  Atom        21          22          23          24          25          26          27          28          29          30
 IAtWgt=          12          14           1           1          14          12          14           1          12          16
 AtmWgt=  12.0000000  14.0030740   1.0078250   1.0078250  14.0030740  12.0000000  14.0030740   1.0078250  12.0000000  15.9949146
 NucSpn=           0           2           1           1           2           0           2           1           0           0
 AtZEff=  -0.0000000  -0.0000000  -0.0000000  -0.0000000  -0.0000000  -0.0000000  -0.0000000  -0.0000000  -0.0000000  -0.0000000
 NQMom=    0.0000000   2.0440000   0.0000000   0.0000000   2.0440000   0.0000000   2.0440000   0.0000000   0.0000000   0.0000000
 NMagM=    0.0000000   0.4037610   2.7928460   2.7928460   0.4037610   0.0000000   0.4037610   2.7928460   0.0000000   0.0000000
 AtZNuc=   6.0000000   7.0000000   1.0000000   1.0000000   7.0000000   6.0000000   7.0000000   1.0000000   6.0000000   8.0000000

  Atom        31          32          33          34          35          36          37          38          39          40
 IAtWgt=          12          14          12           1           1           1           1           1           1           1
 AtmWgt=  12.0000000  14.0030740  12.0000000   1.0078250   1.0078250   1.0078250   1.0078250   1.0078250   1.0078250   1.0078250
 NucSpn=           0           2           0           1           1           1           1           1           1           1
 AtZEff=  -0.0000000  -0.0000000  -0.0000000  -0.0000000  -0.0000000  -0.0000000  -0.0000000  -0.0000000  -0.0000000  -0.0000000
 NQMom=    0.0000000   2.0440000   0.0000000   0.0000000   0.0000000   0.0000000   0.0000000   0.0000000   0.0000000   0.0000000
 NMagM=    0.0000000   0.4037610   0.0000000   2.7928460   2.7928460   2.7928460   2.7928460   2.7928460   2.7928460   2.7928460
 AtZNuc=   6.0000000   7.0000000   6.0000000   1.0000000   1.0000000   1.0000000   1.0000000   1.0000000   1.0000000   1.0000000

  Atom        41          42          43          44          45          46          47          48          49          50
 IAtWgt=           1          12          16          12           1          14          16          12           1          12
 AtmWgt=   1.0078250  12.0000000  15.9949146  12.0000000   1.0078250  14.0030740  15.9949146  12.0000000   1.0078250  12.0000000
 NucSpn=           1           0           0           0           1           2           0           0           1           0
 AtZEff=  -0.0000000  -0.0000000  -0.0000000  -0.0000000  -0.0000000  -0.0000000  -0.0000000  -0.0000000  -0.0000000  -0.0000000
 NQMom=    0.0000000   0.0000000   0.0000000   0.0000000   0.0000000   2.0440000   0.0000000   0.0000000   0.0000000   0.0000000
 NMagM=    2.7928460   0.0000000   0.0000000   0.0000000   2.7928460   0.4037610   0.0000000   0.0000000   2.7928460   0.0000000
 AtZNuc=   1.0000000   6.0000000   8.0000000   6.0000000   1.0000000   7.0000000   8.0000000   6.0000000   1.0000000   6.0000000

  Atom        51          52          53          54          55          56          57          58          59          60
 IAtWgt=          12          14           1           1           1           1           1          14          12          12
 AtmWgt=  12.0000000  14.0030740   1.0078250   1.0078250   1.0078250   1.0078250   1.0078250  14.0030740  12.0000000  12.0000000
 NucSpn=           0           2           1           1           1           1           1           2           0           0
 AtZEff=  -0.0000000  -0.0000000  -0.0000000  -0.0000000  -0.0000000  -0.0000000  -0.0000000  -0.0000000  -0.0000000  -0.0000000
 NQMom=    0.0000000   2.0440000   0.0000000   0.0000000   0.0000000   0.0000000   0.0000000   2.0440000   0.0000000   0.0000000
 NMagM=    0.0000000   0.4037610   2.7928460   2.7928460   2.7928460   2.7928460   2.7928460   0.4037610   0.0000000   0.0000000
 AtZNuc=   6.0000000   7.0000000   1.0000000   1.0000000   1.0000000   1.0000000   1.0000000   7.0000000   6.0000000   6.0000000

  Atom        61          62          63          64          65          66          67          68          69          70
 IAtWgt=          14           1          12          14           1          12          14          12          12          14
 AtmWgt=  14.0030740   1.0078250  12.0000000  14.0030740   1.0078250  12.0000000  14.0030740  12.0000000  12.0000000  14.0030740
 NucSpn=           2           1           0           2           1           0           2           0           0           2
 AtZEff=  -0.0000000  -0.0000000  -0.0000000  -0.0000000  -0.0000000  -0.0000000  -0.0000000  -0.0000000  -0.0000000  -0.0000000
 NQMom=    2.0440000   0.0000000   0.0000000   2.0440000   0.0000000   0.0000000   2.0440000   0.0000000   0.0000000   2.0440000
 NMagM=    0.4037610   2.7928460   0.0000000   0.4037610   2.7928460   0.0000000   0.4037610   0.0000000   0.0000000   0.4037610
 AtZNuc=   7.0000000   1.0000000   6.0000000   7.0000000   1.0000000   6.0000000   7.0000000   6.0000000   6.0000000   7.0000000
 Leave Link  101 at Wed Jan 24 04:29:43 2018, MaxMem=  4294967296 cpu:               7.7 elap:               0.3
 (Enter /share/apps/g16/l202.exe)
 Stoichiometry    C23H27N17O3
 Framework group  C1[X(C23H27N17O3)]
 Deg. of freedom   204
 Full point group                 C1      NOp   1
 Largest Abelian subgroup         C1      NOp   1
 Largest concise Abelian subgroup C1      NOp   1
                         Standard orientation:                         
 ---------------------------------------------------------------------
 Center     Atomic      Atomic             Coordinates (Angstroms)
 Number     Number       Type             X           Y           Z
 ---------------------------------------------------------------------
      1          7           0       -6.148723   -1.665912    0.792445
      2          6           0       -7.539428   -1.174794    0.844963
      3          6           0       -3.956436   -1.800459    0.906744
      4          7           0       -4.400626   -3.047294    0.491018
      5          6           0       -5.703616   -2.916331    0.438803
      6          1           0       -6.394971   -3.707064    0.146044
      7          7           0       -2.575305   -0.003117    1.558654
      8          6           0       -3.698047    0.709267    1.698381
      9          1           0       -3.557941    1.738645    2.025497
     10          7           0       -4.961952    0.342708    1.495644
     11          6           0       -5.022501   -0.938496    1.096588
     12          6           0       -2.669783   -1.289118    1.155708
     13          7           0       -1.550153   -2.001855    1.015648
     14          1           0       -1.572685   -2.957404    0.719628
     15          1           0       -0.651164   -1.605195    1.201727
     16          1           0       -8.064618   -1.725646    1.493750
     17          1           0       -7.545456   -0.219447    1.138889
     18          1           0       -7.954507   -1.245331   -0.062080
     19          7           0       -3.269142    2.714161   -1.562495
     20          6           0       -1.930332    2.423521   -1.456853
     21          6           0       -3.870157    4.049899   -1.374682
     22          7           0        1.332846    3.451943   -0.860372
     23          1           0        2.242647    3.038882   -0.830649
     24          1           0        1.273901    4.433388   -0.675957
     25          7           0       -0.946838    3.302290   -1.166055
     26          6           0        0.240357    2.723304   -1.135075
     27          7           0        0.450481    1.386190   -1.370574
     28          1           0        1.392878    1.030018   -1.325805
     29          6           0       -0.546532    0.463559   -1.671570
     30          8           0       -0.250125   -0.721636   -1.866949
     31          6           0       -1.827472    1.070767   -1.708407
     32          7           0       -3.076583    0.523163   -1.966776
     33          6           0       -3.898660    1.532579   -1.869464
     34          1           0       -4.977988    1.470431   -2.012497
     35          1           0       -4.528490    4.018375   -0.623404
     36          1           0       -3.151137    4.709206   -1.158796
     37          1           0       -4.335589    4.328819   -2.213950
     38          1           0        6.213906   -0.236520   -0.322685
     39          1           0        6.375956   -0.177505   -2.076230
     40          1           0        5.232179    0.889346   -1.260774
     41          1           0        4.233253   -4.450689   -1.532808
     42          6           0        3.976175   -3.391438   -1.520915
     43          8           0        1.644899   -3.765947   -1.748952
     44          6           0        2.603666   -3.002729   -1.634663
     45          1           0        1.431104   -1.326207   -1.686593
     46          7           0        2.388430   -1.639551   -1.608670
     47          8           0        3.047571    0.529500   -1.474760
     48          6           0        3.336123   -0.654238   -1.487932
     49          1           0        5.981070   -2.696677   -1.312254
     50          6           0        4.923140   -2.453524   -1.401828
     51          6           0        5.683515   -0.091647   -1.252081
     52          7           0        4.636141   -1.108291   -1.383078
     53          1           0        4.223577    3.634900    3.353752
     54          1           0        3.014929    3.772503    2.266399
     55          1           0        4.568941    3.821433    1.769654
     56          1           0        1.951945   -3.100349    1.222668
     57          1           0        3.575406   -2.755127    1.616707
     58          7           0        2.646857   -2.419499    1.454348
     59          6           0        2.349568   -1.121459    1.543112
     60          6           0        2.830145    1.178338    1.919537
     61          7           0        1.574583    1.600385    1.696232
     62          1           0       -0.258853    0.826646    1.205853
     63          6           0        0.781737    0.571880    1.402144
     64          7           0        1.077595   -0.728910    1.312753
     65          1           0        5.975195    1.411040    2.631347
     66          6           0        4.972793    1.068596    2.372755
     67          7           0        4.645731   -0.181517    2.153823
     68          6           0        3.289840   -0.125982    1.865365
     69          6           0        3.933358    3.410623    2.423444
     70          7           0        3.922804    1.945321    2.247939
 ---------------------------------------------------------------------
 Rotational constants (GHZ):           0.1303282           0.0564230           0.0503808
 Leave Link  202 at Wed Jan 24 04:29:43 2018, MaxMem=  4294967296 cpu:               0.4 elap:               0.0
 (Enter /share/apps/g16/l301.exe)
 Standard basis: CC-pVDZ (5D, 7F)
 Ernie: Thresh=  0.10000D-02 Tol=  0.10000D-05 Strict=F.
 Ernie:  86 primitive shells out of 1081 were deleted.
 There are   780 symmetry adapted cartesian basis functions of A   symmetry.
 There are   737 symmetry adapted basis functions of A   symmetry.
   737 basis functions,  1608 primitive gaussians,   780 cartesian basis functions
   154 alpha electrons      154 beta electrons
       nuclear repulsion energy      5481.0709353957 Hartrees.
 IExCor= 4639 DFT=T Ex+Corr=wB97XD ExCW=0 ScaHFX=  1.000000
 ScaDFX=  1.000000  1.000000  1.000000  1.000000 ScalE2=  1.000000  1.000000
 IRadAn=      5 IRanWt=     -1 IRanGd=            0 ICorTp=0 IEmpDi=121
 HFx  wShort=  0.000000 wLong=  0.200000 cFull=  0.222036 cShort=  0.000000 cLong=  0.777964
 DFx  wShort=  0.000000 wLong=  0.200000 cFull=  0.000000 cShort=  0.000000 cLong=  1.000000
 NAtoms=   70 NActive=   70 NUniq=   70 SFac= 1.00D+00 NAtFMM=   60 NAOKFM=T Big=T
 Integral buffers will be    131072 words long.
 Raffenetti 2 integral format.
 Two-electron integral symmetry is turned on.
 R6Disp:  Grimme-D2 Dispersion energy=       -0.0690285723 Hartrees.
 Nuclear repulsion after empirical dispersion term =     5481.0019068233 Hartrees.
 Leave Link  301 at Wed Jan 24 04:29:43 2018, MaxMem=  4294967296 cpu:               3.0 elap:               0.1
 (Enter /share/apps/g16/l302.exe)
 NPDir=0 NMtPBC=     1 NCelOv=     1 NCel=       1 NClECP=     1 NCelD=      1
         NCelK=      1 NCelE2=     1 NClLst=     1 CellRange=     0.0.
 One-electron integrals computed using PRISM.
 One-electron integral symmetry used in STVInt
 NBasis=   737 RedAO= T EigKep=  7.14D-04  NBF=   737
 NBsUse=   737 1.00D-06 EigRej= -1.00D+00 NBFU=   737
 Precomputing XC quadrature grid using
 IXCGrd= 4 IRadAn=           5 IRanWt=          -1 IRanGd=           0 AccXCQ= 0.00D+00.
 Generated NRdTot=       0 NPtTot=           0 NUsed=           0 NTot=          32
 NSgBfM=   770   768   768   770   770 MxSgAt=    70 MxSgA2=    70.
 Leave Link  302 at Wed Jan 24 04:29:47 2018, MaxMem=  4294967296 cpu:             135.6 elap:               4.3
 (Enter /share/apps/g16/l303.exe)
 DipDrv:  MaxL=1.
 Leave Link  303 at Wed Jan 24 04:29:48 2018, MaxMem=  4294967296 cpu:              12.5 elap:               0.4
 (Enter /share/apps/g16/l401.exe)
 ExpMin= 1.22D-01 ExpMax= 1.17D+04 ExpMxC= 4.01D+02 IAcc=3 IRadAn=         5 AccDes= 0.00D+00
 Harris functional with IExCor= 4639 and IRadAn=       5 diagonalized for initial guess.
 HarFok:  IExCor= 4639 AccDes= 0.00D+00 IRadAn=         5 IDoV= 1 UseB2=F ITyADJ=14
 ICtDFT=  3500011 ScaDFX=  1.000000  1.000000  1.000000  1.000000
 FoFCou: FMM=F IPFlag=           0 FMFlag=      100000 FMFlg1=        2001
         NFxFlg=           0 DoJE=T BraDBF=F KetDBF=T FulRan=T
         wScrn=  0.000000 ICntrl=       500 IOpCl=  0 I1Cent=   200000004 NGrid=           0
         NMat0=    1 NMatS0=      1 NMatT0=    0 NMatD0=    1 NMtDS0=    0 NMtDT0=    0
 Petite list used in FoFCou.
 Harris En= -1963.88837713219    
 JPrj=0 DoOrth=F DoCkMO=F.
 Leave Link  401 at Wed Jan 24 04:30:00 2018, MaxMem=  4294967296 cpu:             396.3 elap:              12.4
 (Enter /share/apps/g16/l502.exe)
 Integral symmetry usage will be decided dynamically.
 Closed shell SCF:
 Using DIIS extrapolation, IDIIS=  1040.
 NGot=  4294967296 LenX=  4293717438 LenY=  4293108258
 Requested convergence on RMS density matrix=1.00D-08 within  20 cycles.
 Requested convergence on MAX density matrix=1.00D-06.
 Requested convergence on             energy=1.00D-06.
 No special actions if energy rises.
 Fock matrices will be formed incrementally for  20 cycles.
 Integral accuracy reduced to 1.0D-05 until final iterations.

 Cycle   1  Pass 0  IDiag  1:
 FoFJK:  IHMeth= 1 ICntrl=       0 DoSepK=T KAlg= 0 I1Cent=           0 FoldK=F
 IRaf=         1 NMat=       1 IRICut=       1 DoRegI=T DoRafI=F ISym2E= 0 IDoP0=0 IntGTp=1.
 FoFCou: FMM=T IPFlag=           0 FMFlag=      100000 FMFlg1=        2001
         NFxFlg=           0 DoJE=T BraDBF=F KetDBF=F FulRan=T
         wScrn=  0.000000 ICntrl=       500 IOpCl=  0 I1Cent=           0 NGrid=           0
         NMat0=    1 NMatS0=      1 NMatT0=    0 NMatD0=    1 NMtDS0=    0 NMtDT0=    0
 Symmetry not used in FoFCou.
 FMM levels:  10  Number of levels for PrismC:   9
 E= -2048.31703262270    
 DIIS: error= 2.57D-02 at cycle   1 NSaved=   1.
 NSaved= 1 IEnMin= 1 EnMin= -2048.31703262270     IErMin= 1 ErrMin= 2.57D-02
 ErrMax= 2.57D-02  0.00D+00 EMaxC= 1.00D-01 BMatC= 8.31D-01 BMatP= 8.31D-01
 IDIUse=3 WtCom= 7.43D-01 WtEn= 2.57D-01
 Coeff-Com:  0.100D+01
 Coeff-En:   0.100D+01
 Coeff:      0.100D+01
 Gap=     0.250 Goal=   None    Shift=    0.000
 GapD=    0.250 DampG=1.000 DampE=0.500 DampFc=0.5000 IDamp=-1.
 Damping current iteration by 5.00D-01
 RMSDP=1.56D-03 MaxDP=1.32D-01              OVMax= 1.77D-01

 Cycle   2  Pass 0  IDiag  1:
 RMSU=  7.79D-04    CP:  9.98D-01
 E= -2048.51484928944     Delta-E=       -0.197816666741 Rises=F Damp=T
 DIIS: error= 1.44D-02 at cycle   2 NSaved=   2.
 NSaved= 2 IEnMin= 2 EnMin= -2048.51484928944     IErMin= 2 ErrMin= 1.44D-02
 ErrMax= 1.44D-02  0.00D+00 EMaxC= 1.00D-01 BMatC= 1.44D-01 BMatP= 8.31D-01
 IDIUse=3 WtCom= 8.56D-01 WtEn= 1.44D-01
 Coeff-Com: -0.202D+00 0.120D+01
 Coeff-En:   0.000D+00 0.100D+01
 Coeff:     -0.173D+00 0.117D+01
 Gap=     0.358 Goal=   None    Shift=    0.000
 RMSDP=5.76D-04 MaxDP=3.46D-02 DE=-1.98D-01 OVMax= 1.46D-01

 Cycle   3  Pass 0  IDiag  1:
 RMSU=  5.63D-04    CP:  9.94D-01  1.15D+00
 E= -2048.69629681085     Delta-E=       -0.181447521406 Rises=F Damp=F
 DIIS: error= 8.08D-03 at cycle   3 NSaved=   3.
 NSaved= 3 IEnMin= 3 EnMin= -2048.69629681085     IErMin= 3 ErrMin= 8.08D-03
 ErrMax= 8.08D-03  0.00D+00 EMaxC= 1.00D-01 BMatC= 5.95D-02 BMatP= 1.44D-01
 IDIUse=3 WtCom= 9.19D-01 WtEn= 8.08D-02
 Coeff-Com: -0.229D+00 0.541D+00 0.688D+00
 Coeff-En:   0.000D+00 0.000D+00 0.100D+01
 Coeff:     -0.210D+00 0.497D+00 0.713D+00
 Gap=     0.275 Goal=   None    Shift=    0.000
 RMSDP=3.45D-04 MaxDP=3.40D-02 DE=-1.81D-01 OVMax= 7.42D-02

 Cycle   4  Pass 0  IDiag  1:
 RMSU=  1.99D-04    CP:  9.94D-01  1.42D+00  6.78D-01
 E= -2048.74094193957     Delta-E=       -0.044645128719 Rises=F Damp=F
 DIIS: error= 3.17D-03 at cycle   4 NSaved=   4.
 NSaved= 4 IEnMin= 4 EnMin= -2048.74094193957     IErMin= 4 ErrMin= 3.17D-03
 ErrMax= 3.17D-03  0.00D+00 EMaxC= 1.00D-01 BMatC= 8.99D-03 BMatP= 5.95D-02
 IDIUse=3 WtCom= 9.68D-01 WtEn= 3.17D-02
 Coeff-Com: -0.938D-01 0.182D+00 0.382D+00 0.530D+00
 Coeff-En:   0.000D+00 0.000D+00 0.703D-01 0.930D+00
 Coeff:     -0.909D-01 0.176D+00 0.373D+00 0.542D+00
 Gap=     0.280 Goal=   None    Shift=    0.000
 RMSDP=1.26D-04 MaxDP=1.23D-02 DE=-4.46D-02 OVMax= 1.38D-02

 Cycle   5  Pass 0  IDiag  1:
 RMSU=  6.12D-05    CP:  9.94D-01  1.40D+00  8.11D-01  6.15D-01
 E= -2048.74828932469     Delta-E=       -0.007347385129 Rises=F Damp=F
 DIIS: error= 6.47D-04 at cycle   5 NSaved=   5.
 NSaved= 5 IEnMin= 5 EnMin= -2048.74828932469     IErMin= 5 ErrMin= 6.47D-04
 ErrMax= 6.47D-04  0.00D+00 EMaxC= 1.00D-01 BMatC= 2.96D-04 BMatP= 8.99D-03
 IDIUse=3 WtCom= 9.94D-01 WtEn= 6.47D-03
 Coeff-Com: -0.240D-01 0.410D-01 0.123D+00 0.242D+00 0.618D+00
 Coeff-En:   0.000D+00 0.000D+00 0.000D+00 0.000D+00 0.100D+01
 Coeff:     -0.238D-01 0.407D-01 0.122D+00 0.240D+00 0.621D+00
 Gap=     0.280 Goal=   None    Shift=    0.000
 RMSDP=2.56D-05 MaxDP=2.08D-03 DE=-7.35D-03 OVMax= 3.28D-03

 Failed to achieve initial convergence to 1.0D-08 in  6 cycles.
 Switch to full accuracy anyway.
 Cycle   6  Pass 1  IDiag  1:
 E= -2048.74859435899     Delta-E=       -0.000305034292 Rises=F Damp=F
 DIIS: error= 2.11D-04 at cycle   1 NSaved=   1.
 NSaved= 1 IEnMin= 1 EnMin= -2048.74859435899     IErMin= 1 ErrMin= 2.11D-04
 ErrMax= 2.11D-04  0.00D+00 EMaxC= 1.00D-01 BMatC= 7.26D-05 BMatP= 7.26D-05
 IDIUse=3 WtCom= 9.98D-01 WtEn= 2.11D-03
 Coeff-Com:  0.100D+01
 Coeff-En:   0.100D+01
 Coeff:      0.100D+01
 Gap=     0.280 Goal=   None    Shift=    0.000
 RMSDP=2.56D-05 MaxDP=2.08D-03 DE=-3.05D-04 OVMax= 2.42D-03

 Cycle   7  Pass 1  IDiag  1:
 RMSU=  1.10D-04    CP:  1.00D+00
 E= -2048.74864963928     Delta-E=       -0.000055280293 Rises=F Damp=F
 DIIS: error= 2.94D-04 at cycle   2 NSaved=   2.
 NSaved= 2 IEnMin= 2 EnMin= -2048.74864963928     IErMin= 1 ErrMin= 2.11D-04
 ErrMax= 2.94D-04  0.00D+00 EMaxC= 1.00D-01 BMatC= 4.11D-05 BMatP= 7.26D-05
 IDIUse=3 WtCom= 9.97D-01 WtEn= 2.94D-03
 Coeff-Com:  0.404D+00 0.596D+00
 Coeff-En:   0.000D+00 0.100D+01
 Coeff:      0.403D+00 0.597D+00
 Gap=     0.280 Goal=   None    Shift=    0.000
 RMSDP=1.09D-05 MaxDP=1.21D-03 DE=-5.53D-05 OVMax= 1.46D-03

 Cycle   8  Pass 1  IDiag  1:
 RMSU=  1.05D-05    CP:  1.00D+00  1.03D+00
 E= -2048.74867872195     Delta-E=       -0.000029082672 Rises=F Damp=F
 DIIS: error= 1.29D-04 at cycle   3 NSaved=   3.
 NSaved= 3 IEnMin= 3 EnMin= -2048.74867872195     IErMin= 3 ErrMin= 1.29D-04
 ErrMax= 1.29D-04  0.00D+00 EMaxC= 1.00D-01 BMatC= 1.01D-05 BMatP= 4.11D-05
 IDIUse=3 WtCom= 9.99D-01 WtEn= 1.29D-03
 Coeff-Com: -0.207D-01 0.318D+00 0.703D+00
 Coeff-En:   0.000D+00 0.139D+00 0.861D+00
 Coeff:     -0.206D-01 0.318D+00 0.703D+00
 Gap=     0.280 Goal=   None    Shift=    0.000
 RMSDP=5.46D-06 MaxDP=5.00D-04 DE=-2.91D-05 OVMax= 5.34D-04

 Cycle   9  Pass 1  IDiag  1:
 RMSU=  3.76D-06    CP:  1.00D+00  1.05D+00  7.62D-01
 E= -2048.74868792141     Delta-E=       -0.000009199459 Rises=F Damp=F
 DIIS: error= 3.63D-05 at cycle   4 NSaved=   4.
 NSaved= 4 IEnMin= 4 EnMin= -2048.74868792141     IErMin= 4 ErrMin= 3.63D-05
 ErrMax= 3.63D-05  0.00D+00 EMaxC= 1.00D-01 BMatC= 4.79D-07 BMatP= 1.01D-05
 IDIUse=1 WtCom= 1.00D+00 WtEn= 0.00D+00
 Coeff-Com: -0.308D-01 0.872D-01 0.258D+00 0.686D+00
 Coeff:     -0.308D-01 0.872D-01 0.258D+00 0.686D+00
 Gap=     0.280 Goal=   None    Shift=    0.000
 RMSDP=1.40D-06 MaxDP=1.46D-04 DE=-9.20D-06 OVMax= 5.01D-04

 Cycle  10  Pass 1  IDiag  1:
 RMSU=  1.25D-06    CP:  1.00D+00  1.06D+00  7.96D-01  1.10D+00
 E= -2048.74868871892     Delta-E=       -0.000000797514 Rises=F Damp=F
 DIIS: error= 1.81D-05 at cycle   5 NSaved=   5.
 NSaved= 5 IEnMin= 5 EnMin= -2048.74868871892     IErMin= 5 ErrMin= 1.81D-05
 ErrMax= 1.81D-05  0.00D+00 EMaxC= 1.00D-01 BMatC= 1.17D-07 BMatP= 4.79D-07
 IDIUse=1 WtCom= 1.00D+00 WtEn= 0.00D+00
 Coeff-Com: -0.263D-02-0.571D-01-0.122D+00 0.207D+00 0.974D+00
 Coeff:     -0.263D-02-0.571D-01-0.122D+00 0.207D+00 0.974D+00
 Gap=     0.280 Goal=   None    Shift=    0.000
 RMSDP=1.18D-06 MaxDP=7.69D-05 DE=-7.98D-07 OVMax= 2.37D-04

 Cycle  11  Pass 1  IDiag  1:
 RMSU=  4.86D-07    CP:  1.00D+00  1.06D+00  8.07D-01  1.38D+00  1.16D+00
 E= -2048.74868896671     Delta-E=       -0.000000247790 Rises=F Damp=F
 DIIS: error= 1.09D-05 at cycle   6 NSaved=   6.
 NSaved= 6 IEnMin= 6 EnMin= -2048.74868896671     IErMin= 6 ErrMin= 1.09D-05
 ErrMax= 1.09D-05  0.00D+00 EMaxC= 1.00D-01 BMatC= 2.67D-08 BMatP= 1.17D-07
 IDIUse=1 WtCom= 1.00D+00 WtEn= 0.00D+00
 Coeff-Com:  0.474D-02-0.457D-01-0.114D+00 0.137D-02 0.517D+00 0.636D+00
 Coeff:      0.474D-02-0.457D-01-0.114D+00 0.137D-02 0.517D+00 0.636D+00
 Gap=     0.280 Goal=   None    Shift=    0.000
 RMSDP=3.60D-07 MaxDP=3.77D-05 DE=-2.48D-07 OVMax= 1.25D-04

 Cycle  12  Pass 1  IDiag  1:
 RMSU=  1.82D-07    CP:  1.00D+00  1.06D+00  8.08D-01  1.45D+00  1.29D+00
                    CP:  9.22D-01
 E= -2048.74868900559     Delta-E=       -0.000000038877 Rises=F Damp=F
 DIIS: error= 1.27D-06 at cycle   7 NSaved=   7.
 NSaved= 7 IEnMin= 7 EnMin= -2048.74868900559     IErMin= 7 ErrMin= 1.27D-06
 ErrMax= 1.27D-06  0.00D+00 EMaxC= 1.00D-01 BMatC= 8.73D-10 BMatP= 2.67D-08
 IDIUse=1 WtCom= 1.00D+00 WtEn= 0.00D+00
 Coeff-Com:  0.124D-02-0.848D-02-0.227D-01-0.645D-02 0.693D-01 0.158D+00
 Coeff-Com:  0.809D+00
 Coeff:      0.124D-02-0.848D-02-0.227D-01-0.645D-02 0.693D-01 0.158D+00
 Coeff:      0.809D+00
 Gap=     0.280 Goal=   None    Shift=    0.000
 RMSDP=8.11D-08 MaxDP=5.17D-06 DE=-3.89D-08 OVMax= 2.13D-05

 Cycle  13  Pass 1  IDiag  1:
 RMSU=  5.10D-08    CP:  1.00D+00  1.06D+00  8.08D-01  1.46D+00  1.31D+00
                    CP:  1.01D+00  1.12D+00
 E= -2048.74868900693     Delta-E=       -0.000000001339 Rises=F Damp=F
 DIIS: error= 7.63D-07 at cycle   8 NSaved=   8.
 NSaved= 8 IEnMin= 8 EnMin= -2048.74868900693     IErMin= 8 ErrMin= 7.63D-07
 ErrMax= 7.63D-07  0.00D+00 EMaxC= 1.00D-01 BMatC= 3.51D-10 BMatP= 8.73D-10
 IDIUse=1 WtCom= 1.00D+00 WtEn= 0.00D+00
 Coeff-Com: -0.692D-03 0.852D-02 0.199D-01-0.237D-02-0.112D+00-0.916D-01
 Coeff-Com:  0.425D+00 0.753D+00
 Coeff:     -0.692D-03 0.852D-02 0.199D-01-0.237D-02-0.112D+00-0.916D-01
 Coeff:      0.425D+00 0.753D+00
 Gap=     0.280 Goal=   None    Shift=    0.000
 RMSDP=4.91D-08 MaxDP=2.94D-06 DE=-1.34D-09 OVMax= 1.16D-05

 Cycle  14  Pass 1  IDiag  1:
 RMSU=  2.79D-08    CP:  1.00D+00  1.06D+00  8.07D-01  1.46D+00  1.32D+00
                    CP:  1.05D+00  1.28D+00  1.03D+00
 E= -2048.74868900765     Delta-E=       -0.000000000716 Rises=F Damp=F
 DIIS: error= 2.45D-07 at cycle   9 NSaved=   9.
 NSaved= 9 IEnMin= 9 EnMin= -2048.74868900765     IErMin= 9 ErrMin= 2.45D-07
 ErrMax= 2.45D-07  0.00D+00 EMaxC= 1.00D-01 BMatC= 3.73D-11 BMatP= 3.51D-10
 IDIUse=1 WtCom= 1.00D+00 WtEn= 0.00D+00
 Coeff-Com: -0.462D-03 0.495D-02 0.119D-01 0.204D-03-0.584D-01-0.598D-01
 Coeff-Com:  0.945D-01 0.326D+00 0.681D+00
 Coeff:     -0.462D-03 0.495D-02 0.119D-01 0.204D-03-0.584D-01-0.598D-01
 Coeff:      0.945D-01 0.326D+00 0.681D+00
 Gap=     0.280 Goal=   None    Shift=    0.000
 RMSDP=1.38D-08 MaxDP=8.16D-07 DE=-7.16D-10 OVMax= 3.41D-06

 Cycle  15  Pass 1  IDiag  1:
 RMSU=  9.33D-09    CP:  1.00D+00  1.06D+00  8.07D-01  1.46D+00  1.32D+00
                    CP:  1.06D+00  1.30D+00  1.18D+00  1.09D+00
 E= -2048.74868900769     Delta-E=       -0.000000000042 Rises=F Damp=F
 DIIS: error= 7.00D-08 at cycle  10 NSaved=  10.
 NSaved=10 IEnMin=10 EnMin= -2048.74868900769     IErMin=10 ErrMin= 7.00D-08
 ErrMax= 7.00D-08  0.00D+00 EMaxC= 1.00D-01 BMatC= 4.73D-12 BMatP= 3.73D-11
 IDIUse=1 WtCom= 1.00D+00 WtEn= 0.00D+00
 Coeff-Com:  0.138D-05-0.271D-03-0.522D-03 0.166D-03 0.486D-02 0.597D-03
 Coeff-Com: -0.543D-01-0.540D-01 0.229D+00 0.875D+00
 Coeff:      0.138D-05-0.271D-03-0.522D-03 0.166D-03 0.486D-02 0.597D-03
 Coeff:     -0.543D-01-0.540D-01 0.229D+00 0.875D+00
 Gap=     0.280 Goal=   None    Shift=    0.000
 RMSDP=6.91D-09 MaxDP=4.20D-07 DE=-4.18D-11 OVMax= 1.62D-06

 SCF Done:  E(RwB97XD) =  -2048.74868901     A.U. after   15 cycles
            NFock= 15  Conv=0.69D-08     -V/T= 2.0054
 KE= 2.037692230065D+03 PE=-1.574288456987D+04 EE= 6.175441743979D+03
 Leave Link  502 at Wed Jan 24 04:41:16 2018, MaxMem=  4294967296 cpu:           20834.5 elap:             676.3
 (Enter /share/apps/g16/l601.exe)
 Copying SCF densities to generalized density rwf, IOpCl= 0 IROHF=0.

 **********************************************************************

            Population analysis using the SCF density.

 **********************************************************************

 Orbital symmetries:
       Occupied  (A) (A) (A) (A) (A) (A) (A) (A) (A) (A) (A) (A)
                 (A) (A) (A) (A) (A) (A) (A) (A) (A) (A) (A) (A)
                 (A) (A) (A) (A) (A) (A) (A) (A) (A) (A) (A) (A)
                 (A) (A) (A) (A) (A) (A) (A) (A) (A) (A) (A) (A)
                 (A) (A) (A) (A) (A) (A) (A) (A) (A) (A) (A) (A)
                 (A) (A) (A) (A) (A) (A) (A) (A) (A) (A) (A) (A)
                 (A) (A) (A) (A) (A) (A) (A) (A) (A) (A) (A) (A)
                 (A) (A) (A) (A) (A) (A) (A) (A) (A) (A) (A) (A)
                 (A) (A) (A) (A) (A) (A) (A) (A) (A) (A) (A) (A)
                 (A) (A) (A) (A) (A) (A) (A) (A) (A) (A) (A) (A)
                 (A) (A) (A) (A) (A) (A) (A) (A) (A) (A) (A) (A)
                 (A) (A) (A) (A) (A) (A) (A) (A) (A) (A) (A) (A)
                 (A) (A) (A) (A) (A) (A) (A) (A) (A) (A)
       Virtual   (A) (A) (A) (A) (A) (A) (A) (A) (A) (A) (A) (A)
                 (A) (A) (A) (A) (A) (A) (A) (A) (A) (A) (A) (A)
                 (A) (A) (A) (A) (A) (A) (A) (A) (A) (A) (A) (A)
                 (A) (A) (A) (A) (A) (A) (A) (A) (A) (A) (A) (A)
                 (A) (A) (A) (A) (A) (A) (A) (A) (A) (A) (A) (A)
                 (A) (A) (A) (A) (A) (A) (A) (A) (A) (A) (A) (A)
                 (A) (A) (A) (A) (A) (A) (A) (A) (A) (A) (A) (A)
                 (A) (A) (A) (A) (A) (A) (A) (A) (A) (A) (A) (A)
                 (A) (A) (A) (A) (A) (A) (A) (A) (A) (A) (A) (A)
                 (A) (A) (A) (A) (A) (A) (A) (A) (A) (A) (A) (A)
                 (A) (A) (A) (A) (A) (A) (A) (A) (A) (A) (A) (A)
                 (A) (A) (A) (A) (A) (A) (A) (A) (A) (A) (A) (A)
                 (A) (A) (A) (A) (A) (A) (A) (A) (A) (A) (A) (A)
                 (A) (A) (A) (A) (A) (A) (A) (A) (A) (A) (A) (A)
                 (A) (A) (A) (A) (A) (A) (A) (A) (A) (A) (A) (A)
                 (A) (A) (A) (A) (A) (A) (A) (A) (A) (A) (A) (A)
                 (A) (A) (A) (A) (A) (A) (A) (A) (A) (A) (A) (A)
                 (A) (A) (A) (A) (A) (A) (A) (A) (A) (A) (A) (A)
                 (A) (A) (A) (A) (A) (A) (A) (A) (A) (A) (A) (A)
                 (A) (A) (A) (A) (A) (A) (A) (A) (A) (A) (A) (A)
                 (A) (A) (A) (A) (A) (A) (A) (A) (A) (A) (A) (A)
                 (A) (A) (A) (A) (A) (A) (A) (A) (A) (A) (A) (A)
                 (A) (A) (A) (A) (A) (A) (A) (A) (A) (A) (A) (A)
                 (A) (A) (A) (A) (A) (A) (A) (A) (A) (A) (A) (A)
                 (A) (A) (A) (A) (A) (A) (A) (A) (A) (A) (A) (A)
                 (A) (A) (A) (A) (A) (A) (A) (A) (A) (A) (A) (A)
                 (A) (A) (A) (A) (A) (A) (A) (A) (A) (A) (A) (A)
                 (A) (A) (A) (A) (A) (A) (A) (A) (A) (A) (A) (A)
                 (A) (A) (A) (A) (A) (A) (A) (A) (A) (A) (A) (A)
                 (A) (A) (A) (A) (A) (A) (A) (A) (A) (A) (A) (A)
                 (A) (A) (A) (A) (A) (A) (A) (A) (A) (A) (A) (A)
                 (A) (A) (A) (A) (A) (A) (A) (A) (A) (A) (A) (A)
                 (A) (A) (A) (A) (A) (A) (A) (A) (A) (A) (A) (A)
                 (A) (A) (A) (A) (A) (A) (A) (A) (A) (A) (A) (A)
                 (A) (A) (A) (A) (A) (A) (A) (A) (A) (A) (A) (A)
                 (A) (A) (A) (A) (A) (A) (A) (A) (A) (A) (A) (A)
                 (A) (A) (A) (A) (A) (A) (A) (A) (A) (A) (A) (A)
                 (A) (A) (A) (A) (A) (A) (A) (A) (A) (A) (A) (A)
                 (A) (A) (A) (A) (A) (A) (A) (A) (A) (A) (A) (A)
                 (A) (A) (A) (A) (A) (A) (A) (A) (A) (A) (A) (A)
                 (A) (A) (A) (A) (A) (A) (A) (A) (A) (A) (A) (A)
                 (A) (A) (A) (A) (A) (A) (A) (A) (A) (A) (A) (A)
                 (A) (A) (A) (A) (A) (A) (A) (A) (A) (A) (A) (A)
                 (A) (A) (A) (A) (A) (A) (A) (A) (A) (A) (A) (A)
                 (A) (A) (A) (A) (A) (A) (A) (A) (A) (A) (A) (A)
                 (A) (A) (A) (A) (A) (A) (A) (A) (A) (A) (A) (A)
                 (A) (A) (A) (A) (A) (A) (A) (A) (A) (A) (A) (A)
                 (A) (A) (A) (A) (A) (A) (A) (A) (A) (A) (A) (A)
                 (A) (A) (A) (A) (A) (A) (A)
 The electronic state is 1-A.
 Alpha  occ. eigenvalues --  -19.25932 -19.22256 -19.20621 -14.52494 -14.52140
 Alpha  occ. eigenvalues --  -14.48701 -14.48554 -14.47866 -14.47677 -14.46899
 Alpha  occ. eigenvalues --  -14.46624 -14.45213 -14.43780 -14.43755 -14.42049
 Alpha  occ. eigenvalues --  -14.42015 -14.41170 -14.40756 -14.40750 -14.40030
 Alpha  occ. eigenvalues --  -10.45541 -10.41164 -10.40325 -10.39447 -10.38198
 Alpha  occ. eigenvalues --  -10.37937 -10.37709 -10.36762 -10.35288 -10.35221
 Alpha  occ. eigenvalues --  -10.35016 -10.34281 -10.33852 -10.33812 -10.33227
 Alpha  occ. eigenvalues --  -10.33127 -10.32927 -10.32222 -10.31255 -10.30862
 Alpha  occ. eigenvalues --  -10.30817 -10.28285 -10.28041  -1.19496  -1.14837
 Alpha  occ. eigenvalues --   -1.13246  -1.13189  -1.11116  -1.10533  -1.09374
 Alpha  occ. eigenvalues --   -1.08803  -1.08523  -1.04802  -1.04355  -1.02559
 Alpha  occ. eigenvalues --   -1.00658  -1.00240  -0.99714  -0.98521  -0.96780
 Alpha  occ. eigenvalues --   -0.96517  -0.96314  -0.92468  -0.91156  -0.87261
 Alpha  occ. eigenvalues --   -0.85657  -0.84040  -0.83744  -0.83565  -0.82429
 Alpha  occ. eigenvalues --   -0.82140  -0.78957  -0.76626  -0.74581  -0.74380
 Alpha  occ. eigenvalues --   -0.73636  -0.73417  -0.72709  -0.70866  -0.70021
 Alpha  occ. eigenvalues --   -0.67346  -0.66592  -0.66392  -0.66113  -0.64490
 Alpha  occ. eigenvalues --   -0.63883  -0.63744  -0.62685  -0.62526  -0.61700
 Alpha  occ. eigenvalues --   -0.60276  -0.60150  -0.60037  -0.59550  -0.59179
 Alpha  occ. eigenvalues --   -0.59113  -0.58337  -0.56627  -0.56378  -0.56208
 Alpha  occ. eigenvalues --   -0.56017  -0.55308  -0.54999  -0.54552  -0.54381
 Alpha  occ. eigenvalues --   -0.53719  -0.53646  -0.53150  -0.53024  -0.52938
 Alpha  occ. eigenvalues --   -0.52410  -0.52387  -0.51616  -0.50568  -0.50165
 Alpha  occ. eigenvalues --   -0.50051  -0.49494  -0.49488  -0.48896  -0.48742
 Alpha  occ. eigenvalues --   -0.48637  -0.48451  -0.48246  -0.47656  -0.47395
 Alpha  occ. eigenvalues --   -0.46770  -0.45620  -0.44768  -0.44465  -0.43966
 Alpha  occ. eigenvalues --   -0.40942  -0.40389  -0.39487  -0.37427  -0.37357
 Alpha  occ. eigenvalues --   -0.37245  -0.36979  -0.36969  -0.36010  -0.34526
 Alpha  occ. eigenvalues --   -0.34028  -0.33730  -0.33386  -0.33274  -0.33155
 Alpha  occ. eigenvalues --   -0.32639  -0.32392  -0.32122  -0.31814  -0.30716
 Alpha  occ. eigenvalues --   -0.30250  -0.29531  -0.25701  -0.25178
 Alpha virt. eigenvalues --    0.02837   0.04455   0.07295   0.08195   0.08615
 Alpha virt. eigenvalues --    0.09268   0.09744   0.10851   0.11248   0.11671
 Alpha virt. eigenvalues --    0.12693   0.14457   0.14533   0.14591   0.15034
 Alpha virt. eigenvalues --    0.15801   0.16108   0.17002   0.17173   0.18115
 Alpha virt. eigenvalues --    0.18271   0.19382   0.19571   0.20379   0.20588
 Alpha virt. eigenvalues --    0.20826   0.21012   0.21207   0.21828   0.22038
 Alpha virt. eigenvalues --    0.22423   0.22657   0.23406   0.23565   0.23942
 Alpha virt. eigenvalues --    0.23960   0.24177   0.24363   0.24698   0.25198
 Alpha virt. eigenvalues --    0.25564   0.26456   0.26950   0.27165   0.28158
 Alpha virt. eigenvalues --    0.29023   0.29135   0.29711   0.30424   0.31130
 Alpha virt. eigenvalues --    0.31221   0.31579   0.32650   0.32720   0.33625
 Alpha virt. eigenvalues --    0.33965   0.34135   0.34811   0.35657   0.36634
 Alpha virt. eigenvalues --    0.36754   0.37045   0.37914   0.39237   0.39417
 Alpha virt. eigenvalues --    0.40075   0.40230   0.41138   0.41422   0.41697
 Alpha virt. eigenvalues --    0.42262   0.42580   0.43230   0.43861   0.44437
 Alpha virt. eigenvalues --    0.44643   0.45266   0.46319   0.46891   0.47097
 Alpha virt. eigenvalues --    0.47794   0.48241   0.48726   0.48804   0.49417
 Alpha virt. eigenvalues --    0.49720   0.50112   0.50451   0.50582   0.51150
 Alpha virt. eigenvalues --    0.51460   0.51864   0.52156   0.52887   0.53103
 Alpha virt. eigenvalues --    0.53579   0.54167   0.54445   0.55167   0.55453
 Alpha virt. eigenvalues --    0.55760   0.56152   0.56473   0.56927   0.57151
 Alpha virt. eigenvalues --    0.57867   0.58017   0.58348   0.58927   0.59288
 Alpha virt. eigenvalues --    0.60028   0.60401   0.60671   0.60941   0.61344
 Alpha virt. eigenvalues --    0.61777   0.62127   0.62682   0.62941   0.63226
 Alpha virt. eigenvalues --    0.63832   0.63918   0.64468   0.64794   0.65099
 Alpha virt. eigenvalues --    0.65499   0.66648   0.66735   0.66810   0.67322
 Alpha virt. eigenvalues --    0.67970   0.68123   0.68621   0.68996   0.69091
 Alpha virt. eigenvalues --    0.69967   0.70199   0.70348   0.70436   0.71222
 Alpha virt. eigenvalues --    0.71692   0.72264   0.72482   0.73180   0.73442
 Alpha virt. eigenvalues --    0.73757   0.74513   0.74572   0.75051   0.75306
 Alpha virt. eigenvalues --    0.75763   0.76113   0.76391   0.76758   0.76928
 Alpha virt. eigenvalues --    0.77387   0.77630   0.77982   0.78441   0.78597
 Alpha virt. eigenvalues --    0.78948   0.79189   0.79708   0.80611   0.80775
 Alpha virt. eigenvalues --    0.81068   0.81330   0.81945   0.82389   0.82761
 Alpha virt. eigenvalues --    0.83446   0.83770   0.84270   0.84534   0.85196
 Alpha virt. eigenvalues --    0.85466   0.85928   0.86734   0.87183   0.87600
 Alpha virt. eigenvalues --    0.88054   0.88657   0.89130   0.89614   0.89742
 Alpha virt. eigenvalues --    0.90788   0.90803   0.91268   0.91790   0.92060
 Alpha virt. eigenvalues --    0.92221   0.92701   0.93018   0.93716   0.94164
 Alpha virt. eigenvalues --    0.94916   0.95242   0.95510   0.96007   0.96321
 Alpha virt. eigenvalues --    0.96587   0.96953   0.97389   0.98201   0.98801
 Alpha virt. eigenvalues --    0.99727   0.99974   1.00428   1.00736   1.00947
 Alpha virt. eigenvalues --    1.01456   1.01659   1.01732   1.02705   1.03303
 Alpha virt. eigenvalues --    1.03389   1.03791   1.04223   1.04846   1.05153
 Alpha virt. eigenvalues --    1.05520   1.05687   1.06529   1.06798   1.07500
 Alpha virt. eigenvalues --    1.07742   1.09182   1.09336   1.10176   1.10295
 Alpha virt. eigenvalues --    1.10961   1.12030   1.12351   1.12911   1.13375
 Alpha virt. eigenvalues --    1.13689   1.14198   1.14443   1.15182   1.15368
 Alpha virt. eigenvalues --    1.15618   1.16187   1.16699   1.16831   1.17436
 Alpha virt. eigenvalues --    1.17898   1.18409   1.18632   1.19074   1.19408
 Alpha virt. eigenvalues --    1.19713   1.20184   1.20896   1.21032   1.21145
 Alpha virt. eigenvalues --    1.21511   1.22098   1.22476   1.22746   1.22837
 Alpha virt. eigenvalues --    1.23507   1.23585   1.23948   1.24220   1.24553
 Alpha virt. eigenvalues --    1.25317   1.25779   1.26150   1.26593   1.26861
 Alpha virt. eigenvalues --    1.27573   1.28514   1.28996   1.30274   1.30816
 Alpha virt. eigenvalues --    1.31594   1.31933   1.32345   1.33935   1.34050
 Alpha virt. eigenvalues --    1.34397   1.34895   1.35770   1.36027   1.36767
 Alpha virt. eigenvalues --    1.37706   1.38432   1.38840   1.39554   1.39903
 Alpha virt. eigenvalues --    1.40924   1.41646   1.41689   1.43551   1.43883
 Alpha virt. eigenvalues --    1.45004   1.45672   1.46652   1.47727   1.47902
 Alpha virt. eigenvalues --    1.48056   1.49222   1.49484   1.49771   1.49997
 Alpha virt. eigenvalues --    1.50435   1.51630   1.52856   1.53376   1.54623
 Alpha virt. eigenvalues --    1.55085   1.56060   1.56174   1.56327   1.57317
 Alpha virt. eigenvalues --    1.57951   1.58738   1.59047   1.59726   1.59882
 Alpha virt. eigenvalues --    1.60746   1.61571   1.62176   1.62784   1.63672
 Alpha virt. eigenvalues --    1.63865   1.64568   1.65302   1.65564   1.66128
 Alpha virt. eigenvalues --    1.67108   1.68175   1.68620   1.68798   1.69326
 Alpha virt. eigenvalues --    1.69615   1.70132   1.70368   1.70760   1.71134
 Alpha virt. eigenvalues --    1.71828   1.72032   1.72758   1.72976   1.73482
 Alpha virt. eigenvalues --    1.74159   1.74546   1.75125   1.75245   1.75337
 Alpha virt. eigenvalues --    1.75591   1.76072   1.76301   1.76705   1.76789
 Alpha virt. eigenvalues --    1.77373   1.77577   1.78016   1.78273   1.78557
 Alpha virt. eigenvalues --    1.79005   1.79989   1.80084   1.80271   1.80437
 Alpha virt. eigenvalues --    1.80535   1.81040   1.81315   1.81897   1.82200
 Alpha virt. eigenvalues --    1.82592   1.82843   1.83231   1.83897   1.84105
 Alpha virt. eigenvalues --    1.84175   1.85672   1.86244   1.86569   1.86914
 Alpha virt. eigenvalues --    1.87271   1.87624   1.88034   1.88742   1.89211
 Alpha virt. eigenvalues --    1.89495   1.89680   1.90340   1.91030   1.91310
 Alpha virt. eigenvalues --    1.91819   1.92692   1.92938   1.93589   1.93908
 Alpha virt. eigenvalues --    1.94635   1.95303   1.95610   1.96709   1.97007
 Alpha virt. eigenvalues --    1.97322   1.98350   1.99599   2.00345   2.00929
 Alpha virt. eigenvalues --    2.01681   2.01998   2.02422   2.03012   2.03407
 Alpha virt. eigenvalues --    2.04534   2.04848   2.06239   2.06546   2.06639
 Alpha virt. eigenvalues --    2.07590   2.08102   2.08487   2.08889   2.09017
 Alpha virt. eigenvalues --    2.09278   2.10788   2.11218   2.11518   2.12490
 Alpha virt. eigenvalues --    2.13542   2.14171   2.14589   2.16444   2.16841
 Alpha virt. eigenvalues --    2.18919   2.19688   2.20003   2.20304   2.20806
 Alpha virt. eigenvalues --    2.21551   2.21904   2.22356   2.23056   2.23175
 Alpha virt. eigenvalues --    2.24048   2.24671   2.25087   2.26031   2.26535
 Alpha virt. eigenvalues --    2.27202   2.27959   2.28363   2.28892   2.29683
 Alpha virt. eigenvalues --    2.30215   2.30535   2.30666   2.31769   2.32756
 Alpha virt. eigenvalues --    2.33066   2.33299   2.33719   2.33972   2.34411
 Alpha virt. eigenvalues --    2.34930   2.35243   2.35999   2.36665   2.37162
 Alpha virt. eigenvalues --    2.37895   2.38349   2.39231   2.39854   2.41124
 Alpha virt. eigenvalues --    2.41936   2.42472   2.43005   2.43578   2.43890
 Alpha virt. eigenvalues --    2.44300   2.45120   2.45603   2.46558   2.46834
 Alpha virt. eigenvalues --    2.47403   2.47777   2.50044   2.50483   2.51725
 Alpha virt. eigenvalues --    2.52049   2.53100   2.54145   2.54876   2.55274
 Alpha virt. eigenvalues --    2.56600   2.56848   2.57720   2.58512   2.59601
 Alpha virt. eigenvalues --    2.60771   2.61198   2.61933   2.62298   2.63116
 Alpha virt. eigenvalues --    2.64437   2.64902   2.65293   2.65482   2.65739
 Alpha virt. eigenvalues --    2.66542   2.67526   2.68332   2.68855   2.69089
 Alpha virt. eigenvalues --    2.69258   2.69770   2.70699   2.71062   2.71907
 Alpha virt. eigenvalues --    2.72739   2.73916   2.74404   2.75090   2.75834
 Alpha virt. eigenvalues --    2.77303   2.77794   2.78731   2.78944   2.79242
 Alpha virt. eigenvalues --    2.79646   2.80196   2.80510   2.80684   2.81204
 Alpha virt. eigenvalues --    2.81772   2.81970   2.82763   2.83131   2.83827
 Alpha virt. eigenvalues --    2.84676   2.85077   2.86138   2.86534   2.86928
 Alpha virt. eigenvalues --    2.87375   2.87859   2.88786   2.91667   2.93293
 Alpha virt. eigenvalues --    2.94161   2.95320   2.96120   2.97485   2.99285
 Alpha virt. eigenvalues --    2.99835   3.00577   3.01344   3.04647   3.05927
 Alpha virt. eigenvalues --    3.06387   3.09633   3.10448   3.13146   3.14410
 Alpha virt. eigenvalues --    3.15282   3.16048   3.16437   3.18333   3.20410
 Alpha virt. eigenvalues --    3.21552   3.22512   3.23491   3.24102   3.26070
 Alpha virt. eigenvalues --    3.45176   3.47392   3.47598   3.49535   3.50151
 Alpha virt. eigenvalues --    3.53573   3.54251   3.56168   3.57713   3.59895
 Alpha virt. eigenvalues --    3.63026   3.70505   3.74567
          Condensed to atoms (all electrons):
 Mulliken charges:
               1
     1  N   -0.312574
     2  C    0.180841
     3  C    0.049343
     4  N   -0.259353
     5  C    0.134534
     6  H    0.025732
     7  N   -0.291957
     8  C    0.135253
     9  H    0.008951
    10  N   -0.292372
    11  C    0.244972
    12  C    0.116630
    13  N   -0.052865
    14  H    0.111094
    15  H    0.087274
    16  H    0.025065
    17  H    0.032312
    18  H    0.025451
    19  N   -0.310639
    20  C    0.249549
    21  C    0.180403
    22  N   -0.108332
    23  H    0.112578
    24  H    0.114600
    25  N   -0.306847
    26  C    0.233569
    27  N   -0.141052
    28  H    0.118970
    29  C    0.172651
    30  O   -0.321458
    31  C    0.000400
    32  N   -0.226305
    33  C    0.131956
    34  H    0.023915
    35  H    0.030713
    36  H    0.027950
    37  H    0.023852
    38  H    0.062593
    39  H    0.058364
    40  H    0.070809
    41  H    0.029511
    42  C   -0.113036
    43  O   -0.267409
    44  C    0.158112
    45  H    0.134300
    46  N   -0.118840
    47  O   -0.343964
    48  C    0.342214
    49  H    0.048676
    50  C    0.169952
    51  C    0.039656
    52  N   -0.283584
    53  H    0.035044
    54  H    0.039668
    55  H    0.025073
    56  H    0.128892
    57  H    0.115431
    58  N   -0.059689
    59  C    0.081249
    60  C    0.245217
    61  N   -0.270624
    62  H    0.039014
    63  C    0.164651
    64  N   -0.301132
    65  H    0.034260
    66  C    0.136018
    67  N   -0.266093
    68  C    0.026270
    69  C    0.177245
    70  N   -0.312654
 Sum of Mulliken charges =  -0.00000
 Mulliken charges with hydrogens summed into heavy atoms:
               1
     1  N   -0.312574
     2  C    0.263669
     3  C    0.049343
     4  N   -0.259353
     5  C    0.160266
     7  N   -0.291957
     8  C    0.144204
    10  N   -0.292372
    11  C    0.244972
    12  C    0.116630
    13  N    0.145504
    19  N   -0.310639
    20  C    0.249549
    21  C    0.262919
    22  N    0.118846
    25  N   -0.306847
    26  C    0.233569
    27  N   -0.022082
    29  C    0.172651
    30  O   -0.321458
    31  C    0.000400
    32  N   -0.226305
    33  C    0.155871
    42  C   -0.083525
    43  O   -0.267409
    44  C    0.158112
    46  N    0.015460
    47  O   -0.343964
    48  C    0.342214
    50  C    0.218628
    51  C    0.231422
    52  N   -0.283584
    58  N    0.184633
    59  C    0.081249
    60  C    0.245217
    61  N   -0.270624
    63  C    0.203665
    64  N   -0.301132
    66  C    0.170278
    67  N   -0.266093
    68  C    0.026270
    69  C    0.277031
    70  N   -0.312654
 Electronic spatial extent (au):  <R**2>=          22415.9308
 Charge=             -0.0000 electrons
 Dipole moment (field-independent basis, Debye):
    X=              8.1410    Y=              6.0859    Z=              2.0603  Tot=             10.3711
 Quadrupole moment (field-independent basis, Debye-Ang):
   XX=           -151.7842   YY=           -219.1496   ZZ=           -253.3838
   XY=              1.1749   XZ=              4.0395   YZ=             -6.5462
 Traceless Quadrupole moment (field-independent basis, Debye-Ang):
   XX=             56.3216   YY=            -11.0437   ZZ=            -45.2779
   XY=              1.1749   XZ=              4.0395   YZ=             -6.5462
 Octapole moment (field-independent basis, Debye-Ang**2):
  XXX=            -42.4735  YYY=            128.0622  ZZZ=              4.6310  XYY=             71.7290
  XXY=             -2.3199  XXZ=            -43.2616  XZZ=             46.6746  YZZ=             39.1431
  YYZ=             44.3624  XYZ=             67.3909
 Hexadecapole moment (field-independent basis, Debye-Ang**3):
 XXXX=         -14757.1251 YYYY=          -6008.1625 ZZZZ=          -3768.5910 XXXY=            481.1931
 XXXZ=            -77.3103 YYYX=            -61.3190 YYYZ=            -85.1901 ZZZX=             50.1192
 ZZZY=             51.3989 XXYY=          -3455.2337 XXZZ=          -3754.3550 YYZZ=          -1664.6628
 XXYZ=            112.5204 YYXZ=            206.2849 ZZXY=             68.0762
 N-N= 5.481001906823D+03 E-N=-1.574288456708D+04  KE= 2.037692230065D+03
 No NMR shielding tensors so no spin-rotation constants.
 Leave Link  601 at Wed Jan 24 04:41:18 2018, MaxMem=  4294967296 cpu:              49.0 elap:               1.7
 (Enter /share/apps/g16/l9999.exe)
 1\1\GINC-COMPUTE-0-3\SP\RwB97XD\CC-pVDZ\C23H27N17O3\SATYA\24-Jan-2018\
 0\\#p wb97xd/cc-pvdz sp scf=(maxcycles=20)\\Base pair stacking\\0,1\N,
 0,6.81673,1.80797,-5.94282\C,0,7.93686,2.76493,-6.02971\C,0,4.81185,0.
 90395,-5.96512\N,0,5.69437,-0.11701,-5.64336\C,0,6.86691,0.46849,-5.64
 281\H,0,7.81063,-0.03383,-5.42832\N,0,2.84519,2.11317,-6.4478\C,0,3.63
 14,3.18429,-6.5966\H,0,3.11524,4.10749,-6.85647\N,0,4.95329,3.28574,-6
 .47316\C,0,5.48901,2.09635,-6.15261\C,0,3.41451,0.93127,-6.12519\N,0,2
 .63135,-0.13908,-5.97622\H,0,3.00969,-1.03417,-5.73772\H,0,1.6403,-0.0
 8277,-6.09786\H,0,8.58106,2.4632,-6.73267\H,0,7.58537,3.66995,-6.26743
 \H,0,8.40642,2.81259,-5.1481\N,0,2.7268,4.77744,-3.20832\C,0,1.57405,4
 .03217,-3.26983\C,0,2.80232,6.24587,-3.34506\N,0,-1.87252,3.8496,-3.65
 66\H,0,-2.57684,3.14036,-3.66901\H,0,-2.17697,4.79368,-3.78599\N,0,0.3
 267,4.51226,-3.46397\C,0,-0.5777,3.54916,-3.47471\N,0,-0.28503,2.2172,
 -3.30824\H,0,-1.04087,1.54999,-3.33086\C,0,0.99112,1.70061,-3.1071\O,0
 ,1.14692,0.48116,-2.96787\C,0,1.97335,2.7233,-3.09313\N,0,3.34911,2.64
 837,-2.92409\C,0,3.75223,3.88772,-2.99963\H,0,4.79027,4.20965,-2.90961
 \H,0,3.38023,6.48029,-4.12601\H,0,1.88422,6.61271,-3.48929\H,0,3.19074
 ,6.64025,-2.51296\H,0,-5.1533,-1.31515,-4.18618\H,0,-5.21461,-1.38507,
 -2.42663\H,0,-4.57708,0.05025,-3.22961\H,0,-1.73559,-4.58726,-3.31488\
 C,0,-1.87186,-3.50642,-3.27668\O,0,0.45027,-3.03222,-3.17693\C,0,-0.72
 191,-2.6579,-3.2029\H,0,-0.21877,-0.67651,-3.10664\N,0,-1.00581,-1.307
 81,-3.15915\O,0,-2.39787,0.4863,-3.13636\C,0,-2.24677,-0.72201,-3.1791
 1\H,0,-4.00175,-3.56593,-3.35326\C,0,-3.09524,-2.96466,-3.29779\C,0,-4
 .65108,-1.02613,-3.27496\N,0,-3.30537,-1.60597,-3.25112\H,0,-4.90057,3
 .14946,-7.71731\H,0,-3.753,3.66784,-6.67978\H,0,-5.1888,3.13958,-6.110
 99\H,0,-0.25981,-2.4069,-6.0877\H,0,-1.92168,-2.64933,-6.38684\N,0,-1.
 16405,-2.01074,-6.24752\C,0,-1.35228,-0.68974,-6.27389\C,0,-2.6394,1.2
 9944,-6.49344\N,0,-1.60345,2.13312,-6.30315\H,0,0.41226,2.04691,-5.942
 44\C,0,-0.4807,1.44508,-6.1058\N,0,-0.29012,0.122,-6.07903\H,0,-5.7010
 7,0.42083,-7.04696\C,0,-4.62817,0.44927,-6.85454\N,0,-3.8662,-0.60904,
 -6.72391\C,0,-2.60265,-0.08409,-6.49456\C,0,-4.49155,3.00816,-6.81579\
 N,0,-3.95136,1.63766,-6.72664\\Version=EM64L-G16RevA.03\State=1-A\HF=-
 2048.748689\RMSD=6.906e-09\Dipole=-3.8879449,1.1219858,-0.5234226\Quad
 rupole=35.996512,-2.8740353,-33.1224767,16.4104367,-2.7030234,5.772321
 4\PG=C01 [X(C23H27N17O3)]\\@


 BULLDOZER: SOMEONE WHO SLEEPS THROUGH SPEECHES.
 Job cpu time:       0 days  5 hours 57 minutes 24.7 seconds.
 Elapsed time:       0 days  0 hours 11 minutes 35.9 seconds.
 File lengths (MBytes):  RWF=    298 Int=      0 D2E=      0 Chk=     33 Scr=      1
 Normal termination of Gaussian 16 at Wed Jan 24 04:41:19 2018.
