 Entering Gaussian System, Link 0=g16
 Input=str45.-5.0.0.com
 Output=str45.-5.0.0.log
 Initial command:
 /share/apps/g16/l1.exe "/state/partition1/scr/Gau-11655.inp" -scrdir="/state/partition1/scr/"
 Entering Link 1 = /share/apps/g16/l1.exe PID=     11656.
  
 Copyright (c) 1988,1990,1992,1993,1995,1998,2003,2009,2016,
            Gaussian, Inc.  All Rights Reserved.
  
 This is part of the Gaussian(R) 16 program.  It is based on
 the Gaussian(R) 09 system (copyright 2009, Gaussian, Inc.),
 the Gaussian(R) 03 system (copyright 2003, Gaussian, Inc.),
 the Gaussian(R) 98 system (copyright 1998, Gaussian, Inc.),
 the Gaussian(R) 94 system (copyright 1995, Gaussian, Inc.),
 the Gaussian 92(TM) system (copyright 1992, Gaussian, Inc.),
 the Gaussian 90(TM) system (copyright 1990, Gaussian, Inc.),
 the Gaussian 88(TM) system (copyright 1988, Gaussian, Inc.),
 the Gaussian 86(TM) system (copyright 1986, Carnegie Mellon
 University), and the Gaussian 82(TM) system (copyright 1983,
 Carnegie Mellon University). Gaussian is a federally registered
 trademark of Gaussian, Inc.
  
 This software contains proprietary and confidential information,
 including trade secrets, belonging to Gaussian, Inc.
  
 This software is provided under written license and may be
 used, copied, transmitted, or stored only in accord with that
 written license.
  
 The following legend is applicable only to US Government
 contracts under FAR:
  
                    RESTRICTED RIGHTS LEGEND
  
 Use, reproduction and disclosure by the US Government is
 subject to restrictions as set forth in subparagraphs (a)
 and (c) of the Commercial Computer Software - Restricted
 Rights clause in FAR 52.227-19.
  
 Gaussian, Inc.
 340 Quinnipiac St., Bldg. 40, Wallingford CT 06492
  
  
 ---------------------------------------------------------------
 Warning -- This program may not be used in any manner that
 competes with the business of Gaussian, Inc. or will provide
 assistance to any competitor of Gaussian, Inc.  The licensee
 of this program is prohibited from giving any competitor of
 Gaussian, Inc. access to this program.  By using this program,
 the user acknowledges that Gaussian, Inc. is engaged in the
 business of creating and licensing software in the field of
 computational chemistry and represents and warrants to the
 licensee that it is not a competitor of Gaussian, Inc. and that
 it will not use this program in any manner prohibited above.
 ---------------------------------------------------------------
  

 Cite this work as:
 Gaussian 16, Revision A.03,
 M. J. Frisch, G. W. Trucks, H. B. Schlegel, G. E. Scuseria, 
 M. A. Robb, J. R. Cheeseman, G. Scalmani, V. Barone, 
 G. A. Petersson, H. Nakatsuji, X. Li, M. Caricato, A. V. Marenich, 
 J. Bloino, B. G. Janesko, R. Gomperts, B. Mennucci, H. P. Hratchian, 
 J. V. Ortiz, A. F. Izmaylov, J. L. Sonnenberg, D. Williams-Young, 
 F. Ding, F. Lipparini, F. Egidi, J. Goings, B. Peng, A. Petrone, 
 T. Henderson, D. Ranasinghe, V. G. Zakrzewski, J. Gao, N. Rega, 
 G. Zheng, W. Liang, M. Hada, M. Ehara, K. Toyota, R. Fukuda, 
 J. Hasegawa, M. Ishida, T. Nakajima, Y. Honda, O. Kitao, H. Nakai, 
 T. Vreven, K. Throssell, J. A. Montgomery, Jr., J. E. Peralta, 
 F. Ogliaro, M. J. Bearpark, J. J. Heyd, E. N. Brothers, K. N. Kudin, 
 V. N. Staroverov, T. A. Keith, R. Kobayashi, J. Normand, 
 K. Raghavachari, A. P. Rendell, J. C. Burant, S. S. Iyengar, 
 J. Tomasi, M. Cossi, J. M. Millam, M. Klene, C. Adamo, R. Cammi, 
 J. W. Ochterski, R. L. Martin, K. Morokuma, O. Farkas, 
 J. B. Foresman, and D. J. Fox, Gaussian, Inc., Wallingford CT, 2016.
 
 ******************************************
 Gaussian 16:  EM64L-G16RevA.03 25-Dec-2016
                24-Jan-2018 
 ******************************************
 %nprocshared=32
 Will use up to   32 processors via shared memory.
 %mem=32GB
 %chk=allatoms_t.chk
 ---------------------------------------
 #p wb97xd/cc-pvdz sp scf=(maxcycles=20)
 ---------------------------------------
 1/38=1,172=1/1;
 2/12=2,17=6,18=5,40=1/2;
 3/5=16,11=2,25=1,30=1,74=-58/1,2,3;
 4//1;
 5/5=2,7=20,38=5/2;
 6/7=2,8=2,9=2,10=2,28=1/1;
 99/5=1,9=1/99;
 Leave Link    1 at Wed Jan 24 03:42:14 2018, MaxMem=  4294967296 cpu:               2.7 elap:               0.1
 (Enter /share/apps/g16/l101.exe)
 ------------------
 Base pair stacking
 ------------------
 Symbolic Z-matrix:
 Charge =  0 Multiplicity = 1
 N                     5.19737   1.57501  -6.89828 
 C                     6.29608   2.55348  -7.0143 
 C                     3.21182   0.65159  -6.69292 
 N                     4.1192   -0.39433  -6.77926 
 C                     5.27911   0.20387  -6.89952 
 H                     6.23555  -0.31123  -6.99353 
 N                     1.21483   1.89126  -6.49748 
 C                     1.97662   2.9869   -6.58006 
 H                     1.43825   3.9324   -6.5305 
 N                     3.29738   3.08947  -6.71404 
 C                     3.8616    1.87148  -6.76482 
 C                     1.81249   0.68091  -6.55168 
 N                     1.05375  -0.41395  -6.46941 
 H                     1.45351  -1.33055  -6.50512 
 H                     0.06043  -0.35536  -6.36934 
 H                     6.77442   2.41826  -7.88211 
 H                     5.92297   3.48021  -6.98134 
 H                     6.93855   2.42756  -6.25841 
 N                     2.24532   4.32235  -3.30587 
 C                     1.09276   3.577    -3.2418 
 C                     2.30649   5.79673  -3.36196 
 N                    -2.3739    3.40276  -3.12502 
 H                    -3.07554   2.69241  -3.0766 
 H                    -2.68983   4.3516   -3.14981 
 N                    -0.16738   4.0624   -3.2195 
 C                    -1.06781   3.09765  -3.15541 
 N                    -0.75982   1.75933  -3.11607 
 H                    -1.51373   1.09132  -3.06753 
 C                     0.52967   1.23722  -3.13795 
 O                     0.69879   0.01224  -3.09835 
 C                     1.50783   2.2616   -3.20671 
 N                     2.8931    2.18272  -3.24792 
 C                     3.28627   3.4262   -3.30611 
 H                     4.32767   3.74673  -3.35104 
 H                     2.7636    6.08124  -4.20392 
 H                     1.37884   6.16753  -3.34604 
 H                     2.8155    6.1411   -2.57385 
 H                    -5.72047  -1.73471  -3.47929 
 H                    -5.52118  -1.91269  -1.73767 
 H                    -5.00288  -0.42793  -2.53655 
 H                    -2.22646  -5.03846  -3.32541 
 C                    -2.35064  -3.96263  -3.20126 
 O                    -0.03716  -3.48484  -3.41716 
 C                    -1.19856  -3.11499  -3.24647 
 H                    -0.67768  -1.14096  -3.10434 
 N                    -1.4667   -1.77144  -3.07849 
 O                    -2.83188   0.01152  -2.74007 
 C                    -2.69428  -1.19118  -2.87872 
 H                    -4.46868  -4.02705  -2.96548 
 C                    -3.5612   -3.42619  -3.00792 
 C                    -5.08769  -1.49983  -2.63639 
 N                    -3.75591  -2.07389  -2.84744 
 H                    -6.60152   2.99842  -5.89654 
 H                    -5.25332   3.31539  -5.03399 
 H                    -6.55188   2.64936  -4.30308 
 H                    -1.84703  -2.67212  -6.44907 
 H                    -3.53976  -2.88358  -6.4421 
 N                    -2.75589  -2.27132  -6.33296 
 C                    -2.91654  -0.97801  -6.04537 
 C                    -4.17738   0.98479  -5.57695 
 N                    -3.10646   1.78337  -5.43612 
 H                    -1.0621    1.66839  -5.52545 
 C                    -1.9825    1.09411  -5.622 
 N                    -1.81952  -0.20126  -5.91012 
 H                    -7.30584   0.17324  -5.656 
 C                    -6.21598   0.18464  -5.68774 
 N                    -5.46681  -0.86081  -5.93966 
 C                    -4.17195  -0.36729  -5.87251 
 C                    -6.01829   2.68224  -5.14829 
 N                    -5.50148   1.33521  -5.45881 
 
 ITRead=  0  0  0  0  0  0  0  0  0  0  0  0  0  0  0  0  0  0  0  0
 ITRead=  0  0  0  0  0  0  0  0  0  0  0  0  0  0  0  0  0  0  0  0
 ITRead=  0  0  0  0  0  0  0  0  0  0  0  0  0  0  0  0  0  0  0  0
 ITRead=  0  0  0  0  0  0  0  0  0  0
 MicOpt= -1 -1 -1 -1 -1 -1 -1 -1 -1 -1 -1 -1 -1 -1 -1 -1 -1 -1 -1 -1
 MicOpt= -1 -1 -1 -1 -1 -1 -1 -1 -1 -1 -1 -1 -1 -1 -1 -1 -1 -1 -1 -1
 MicOpt= -1 -1 -1 -1 -1 -1 -1 -1 -1 -1 -1 -1 -1 -1 -1 -1 -1 -1 -1 -1
 MicOpt= -1 -1 -1 -1 -1 -1 -1 -1 -1 -1
 NAtoms=     70 NQM=       70 NQMF=       0 NMMI=      0 NMMIF=      0
                NMic=       0 NMicF=      0.
                    Isotopes and Nuclear Properties:
 (Nuclear quadrupole moments (NQMom) in fm**2, nuclear magnetic moments (NMagM)
  in nuclear magnetons)

  Atom         1           2           3           4           5           6           7           8           9          10
 IAtWgt=          14          12          12          14          12           1          14          12           1          14
 AtmWgt=  14.0030740  12.0000000  12.0000000  14.0030740  12.0000000   1.0078250  14.0030740  12.0000000   1.0078250  14.0030740
 NucSpn=           2           0           0           2           0           1           2           0           1           2
 AtZEff=  -0.0000000  -0.0000000  -0.0000000  -0.0000000  -0.0000000  -0.0000000  -0.0000000  -0.0000000  -0.0000000  -0.0000000
 NQMom=    2.0440000   0.0000000   0.0000000   2.0440000   0.0000000   0.0000000   2.0440000   0.0000000   0.0000000   2.0440000
 NMagM=    0.4037610   0.0000000   0.0000000   0.4037610   0.0000000   2.7928460   0.4037610   0.0000000   2.7928460   0.4037610
 AtZNuc=   7.0000000   6.0000000   6.0000000   7.0000000   6.0000000   1.0000000   7.0000000   6.0000000   1.0000000   7.0000000

  Atom        11          12          13          14          15          16          17          18          19          20
 IAtWgt=          12          12          14           1           1           1           1           1          14          12
 AtmWgt=  12.0000000  12.0000000  14.0030740   1.0078250   1.0078250   1.0078250   1.0078250   1.0078250  14.0030740  12.0000000
 NucSpn=           0           0           2           1           1           1           1           1           2           0
 AtZEff=  -0.0000000  -0.0000000  -0.0000000  -0.0000000  -0.0000000  -0.0000000  -0.0000000  -0.0000000  -0.0000000  -0.0000000
 NQMom=    0.0000000   0.0000000   2.0440000   0.0000000   0.0000000   0.0000000   0.0000000   0.0000000   2.0440000   0.0000000
 NMagM=    0.0000000   0.0000000   0.4037610   2.7928460   2.7928460   2.7928460   2.7928460   2.7928460   0.4037610   0.0000000
 AtZNuc=   6.0000000   6.0000000   7.0000000   1.0000000   1.0000000   1.0000000   1.0000000   1.0000000   7.0000000   6.0000000

  Atom        21          22          23          24          25          26          27          28          29          30
 IAtWgt=          12          14           1           1          14          12          14           1          12          16
 AtmWgt=  12.0000000  14.0030740   1.0078250   1.0078250  14.0030740  12.0000000  14.0030740   1.0078250  12.0000000  15.9949146
 NucSpn=           0           2           1           1           2           0           2           1           0           0
 AtZEff=  -0.0000000  -0.0000000  -0.0000000  -0.0000000  -0.0000000  -0.0000000  -0.0000000  -0.0000000  -0.0000000  -0.0000000
 NQMom=    0.0000000   2.0440000   0.0000000   0.0000000   2.0440000   0.0000000   2.0440000   0.0000000   0.0000000   0.0000000
 NMagM=    0.0000000   0.4037610   2.7928460   2.7928460   0.4037610   0.0000000   0.4037610   2.7928460   0.0000000   0.0000000
 AtZNuc=   6.0000000   7.0000000   1.0000000   1.0000000   7.0000000   6.0000000   7.0000000   1.0000000   6.0000000   8.0000000

  Atom        31          32          33          34          35          36          37          38          39          40
 IAtWgt=          12          14          12           1           1           1           1           1           1           1
 AtmWgt=  12.0000000  14.0030740  12.0000000   1.0078250   1.0078250   1.0078250   1.0078250   1.0078250   1.0078250   1.0078250
 NucSpn=           0           2           0           1           1           1           1           1           1           1
 AtZEff=  -0.0000000  -0.0000000  -0.0000000  -0.0000000  -0.0000000  -0.0000000  -0.0000000  -0.0000000  -0.0000000  -0.0000000
 NQMom=    0.0000000   2.0440000   0.0000000   0.0000000   0.0000000   0.0000000   0.0000000   0.0000000   0.0000000   0.0000000
 NMagM=    0.0000000   0.4037610   0.0000000   2.7928460   2.7928460   2.7928460   2.7928460   2.7928460   2.7928460   2.7928460
 AtZNuc=   6.0000000   7.0000000   6.0000000   1.0000000   1.0000000   1.0000000   1.0000000   1.0000000   1.0000000   1.0000000

  Atom        41          42          43          44          45          46          47          48          49          50
 IAtWgt=           1          12          16          12           1          14          16          12           1          12
 AtmWgt=   1.0078250  12.0000000  15.9949146  12.0000000   1.0078250  14.0030740  15.9949146  12.0000000   1.0078250  12.0000000
 NucSpn=           1           0           0           0           1           2           0           0           1           0
 AtZEff=  -0.0000000  -0.0000000  -0.0000000  -0.0000000  -0.0000000  -0.0000000  -0.0000000  -0.0000000  -0.0000000  -0.0000000
 NQMom=    0.0000000   0.0000000   0.0000000   0.0000000   0.0000000   2.0440000   0.0000000   0.0000000   0.0000000   0.0000000
 NMagM=    2.7928460   0.0000000   0.0000000   0.0000000   2.7928460   0.4037610   0.0000000   0.0000000   2.7928460   0.0000000
 AtZNuc=   1.0000000   6.0000000   8.0000000   6.0000000   1.0000000   7.0000000   8.0000000   6.0000000   1.0000000   6.0000000

  Atom        51          52          53          54          55          56          57          58          59          60
 IAtWgt=          12          14           1           1           1           1           1          14          12          12
 AtmWgt=  12.0000000  14.0030740   1.0078250   1.0078250   1.0078250   1.0078250   1.0078250  14.0030740  12.0000000  12.0000000
 NucSpn=           0           2           1           1           1           1           1           2           0           0
 AtZEff=  -0.0000000  -0.0000000  -0.0000000  -0.0000000  -0.0000000  -0.0000000  -0.0000000  -0.0000000  -0.0000000  -0.0000000
 NQMom=    0.0000000   2.0440000   0.0000000   0.0000000   0.0000000   0.0000000   0.0000000   2.0440000   0.0000000   0.0000000
 NMagM=    0.0000000   0.4037610   2.7928460   2.7928460   2.7928460   2.7928460   2.7928460   0.4037610   0.0000000   0.0000000
 AtZNuc=   6.0000000   7.0000000   1.0000000   1.0000000   1.0000000   1.0000000   1.0000000   7.0000000   6.0000000   6.0000000

  Atom        61          62          63          64          65          66          67          68          69          70
 IAtWgt=          14           1          12          14           1          12          14          12          12          14
 AtmWgt=  14.0030740   1.0078250  12.0000000  14.0030740   1.0078250  12.0000000  14.0030740  12.0000000  12.0000000  14.0030740
 NucSpn=           2           1           0           2           1           0           2           0           0           2
 AtZEff=  -0.0000000  -0.0000000  -0.0000000  -0.0000000  -0.0000000  -0.0000000  -0.0000000  -0.0000000  -0.0000000  -0.0000000
 NQMom=    2.0440000   0.0000000   0.0000000   2.0440000   0.0000000   0.0000000   2.0440000   0.0000000   0.0000000   2.0440000
 NMagM=    0.4037610   2.7928460   0.0000000   0.4037610   2.7928460   0.0000000   0.4037610   0.0000000   0.0000000   0.4037610
 AtZNuc=   7.0000000   1.0000000   6.0000000   7.0000000   1.0000000   6.0000000   7.0000000   6.0000000   6.0000000   7.0000000
 Leave Link  101 at Wed Jan 24 03:42:14 2018, MaxMem=  4294967296 cpu:               7.1 elap:               0.3
 (Enter /share/apps/g16/l202.exe)
 Stoichiometry    C23H27N17O3
 Framework group  C1[X(C23H27N17O3)]
 Deg. of freedom   204
 Full point group                 C1      NOp   1
 Largest Abelian subgroup         C1      NOp   1
 Largest concise Abelian subgroup C1      NOp   1
                         Standard orientation:                         
 ---------------------------------------------------------------------
 Center     Atomic      Atomic             Coordinates (Angstroms)
 Number     Number       Type             X           Y           Z
 ---------------------------------------------------------------------
      1          7           0        5.829868   -1.690459   -1.031408
      2          6           0        7.221339   -1.198834   -1.043406
      3          6           0        3.635756   -1.806498   -1.129857
      4          7           0        4.081564   -3.095533   -0.876114
      5          6           0        5.385602   -2.974022   -0.826952
      6          1           0        6.078345   -3.795739   -0.643018
      7          7           0        2.251634    0.059294   -1.537256
      8          6           0        3.374690    0.781609   -1.604911
      9          1           0        3.233451    1.843496   -1.801676
     10          7           0        4.640067    0.390990   -1.466653
     11          6           0        4.701936   -0.929506   -1.228146
     12          6           0        2.347454   -1.266482   -1.295968
     13          7           0        1.227526   -1.989202   -1.228069
     14          1           0        1.251016   -2.973832   -1.051462
     15          1           0        0.327351   -1.571330   -1.351352
     16          1           0        7.735535   -1.667039   -1.762137
     17          1           0        7.226440   -0.214717   -1.218375
     18          1           0        7.648865   -1.380444   -0.157837
     19          7           0        3.641545    2.586265    1.436134
     20          6           0        2.296821    2.315934    1.354389
     21          6           0        4.263950    3.903067    1.192560
     22          7           0       -0.953773    3.379706    0.751266
     23          1           0       -1.870944    2.982203    0.745833
     24          1           0       -0.879516    4.352371    0.529608
     25          7           0        1.325961    3.200732    1.040341
     26          6           0        0.128526    2.642368    1.042550
     27          7           0       -0.102600    1.318951    1.330048
     28          1           0       -1.051515    0.978308    1.307762
     29          6           0        0.881115    0.390485    1.655806
     30          8           0        0.565983   -0.781098    1.898355
     31          6           0        2.172836    0.975579    1.657487
     32          7           0        3.414733    0.415692    1.924154
     33          6           0        4.253362    1.405870    1.781112
     34          1           0        5.332851    1.329754    1.915954
     35          1           0        4.913842    3.831725    0.436688
     36          1           0        3.554428    4.566640    0.959045
     37          1           0        4.742832    4.204734    2.016252
     38          1           0       -5.904121   -0.238151    0.399417
     39          1           0       -6.047015   -0.110822    2.150989
     40          1           0       -4.893157    0.904167    1.285098
     41          1           0       -3.985384   -4.439040    1.747576
     42          6           0       -3.709881   -3.385752    1.693483
     43          8           0       -1.383315   -3.793217    1.912905
     44          6           0       -2.329656   -3.017737    1.779327
     45          1           0       -1.127375   -1.361737    1.757030
     46          7           0       -2.090804   -1.660562    1.700150
     47          8           0       -2.713116    0.513448    1.491344
     48          6           0       -3.022248   -0.663600    1.551692
     49          1           0       -5.704315   -2.663427    1.478267
     50          6           0       -4.641415   -2.436112    1.548452
     51          6           0       -5.361714   -0.068218    1.317555
     52          7           0       -4.331050   -1.097876    1.476495
     53          1           0       -4.559556    3.900435   -2.776447
     54          1           0       -3.335323    3.902084   -1.697856
     55          1           0       -4.882039    3.892383   -1.176646
     56          1           0       -2.280785   -3.048528   -1.517635
     57          1           0       -3.908459   -2.655101   -1.843199
     58          7           0       -2.976600   -2.343333   -1.654347
     59          6           0       -2.676251   -1.044659   -1.587989
     60          6           0       -3.154369    1.284679   -1.673464
     61          7           0       -1.894388    1.674230   -1.418261
     62          1           0       -0.056857    0.843387   -1.052493
     63          6           0       -1.100940    0.616206   -1.263524
     64          7           0       -1.399862   -0.685268   -1.329615
     65          1           0       -6.308293    1.607734   -2.306334
     66          6           0       -5.303520    1.234622   -2.105957
     67          7           0       -4.977594   -0.033403   -2.046210
     68          6           0       -3.617610   -0.015739   -1.772598
     69          6           0       -4.257060    3.563593   -1.884797
     70          7           0       -4.248948    2.087817   -1.889935
 ---------------------------------------------------------------------
 Rotational constants (GHZ):           0.1328494           0.0578276           0.0513661
 Leave Link  202 at Wed Jan 24 03:42:15 2018, MaxMem=  4294967296 cpu:               0.3 elap:               0.0
 (Enter /share/apps/g16/l301.exe)
 Standard basis: CC-pVDZ (5D, 7F)
 Ernie: Thresh=  0.10000D-02 Tol=  0.10000D-05 Strict=F.
 Ernie:  86 primitive shells out of 1081 were deleted.
 There are   780 symmetry adapted cartesian basis functions of A   symmetry.
 There are   737 symmetry adapted basis functions of A   symmetry.
   737 basis functions,  1608 primitive gaussians,   780 cartesian basis functions
   154 alpha electrons      154 beta electrons
       nuclear repulsion energy      5519.9931357288 Hartrees.
 IExCor= 4639 DFT=T Ex+Corr=wB97XD ExCW=0 ScaHFX=  1.000000
 ScaDFX=  1.000000  1.000000  1.000000  1.000000 ScalE2=  1.000000  1.000000
 IRadAn=      5 IRanWt=     -1 IRanGd=            0 ICorTp=0 IEmpDi=121
 HFx  wShort=  0.000000 wLong=  0.200000 cFull=  0.222036 cShort=  0.000000 cLong=  0.777964
 DFx  wShort=  0.000000 wLong=  0.200000 cFull=  0.000000 cShort=  0.000000 cLong=  1.000000
 NAtoms=   70 NActive=   70 NUniq=   70 SFac= 1.00D+00 NAtFMM=   60 NAOKFM=T Big=T
 Integral buffers will be    131072 words long.
 Raffenetti 2 integral format.
 Two-electron integral symmetry is turned on.
 R6Disp:  Grimme-D2 Dispersion energy=       -0.0714528249 Hartrees.
 Nuclear repulsion after empirical dispersion term =     5519.9216829040 Hartrees.
 Leave Link  301 at Wed Jan 24 03:42:15 2018, MaxMem=  4294967296 cpu:               2.1 elap:               0.1
 (Enter /share/apps/g16/l302.exe)
 NPDir=0 NMtPBC=     1 NCelOv=     1 NCel=       1 NClECP=     1 NCelD=      1
         NCelK=      1 NCelE2=     1 NClLst=     1 CellRange=     0.0.
 One-electron integrals computed using PRISM.
 One-electron integral symmetry used in STVInt
 NBasis=   737 RedAO= T EigKep=  6.93D-04  NBF=   737
 NBsUse=   737 1.00D-06 EigRej= -1.00D+00 NBFU=   737
 Precomputing XC quadrature grid using
 IXCGrd= 4 IRadAn=           5 IRanWt=          -1 IRanGd=           0 AccXCQ= 0.00D+00.
 Generated NRdTot=       0 NPtTot=           0 NUsed=           0 NTot=          32
 NSgBfM=   770   770   770   770   770 MxSgAt=    70 MxSgA2=    70.
 Leave Link  302 at Wed Jan 24 03:42:19 2018, MaxMem=  4294967296 cpu:             134.7 elap:               4.2
 (Enter /share/apps/g16/l303.exe)
 DipDrv:  MaxL=1.
 Leave Link  303 at Wed Jan 24 03:42:19 2018, MaxMem=  4294967296 cpu:              12.6 elap:               0.4
 (Enter /share/apps/g16/l401.exe)
 ExpMin= 1.22D-01 ExpMax= 1.17D+04 ExpMxC= 4.01D+02 IAcc=3 IRadAn=         5 AccDes= 0.00D+00
 Harris functional with IExCor= 4639 and IRadAn=       5 diagonalized for initial guess.
 HarFok:  IExCor= 4639 AccDes= 0.00D+00 IRadAn=         5 IDoV= 1 UseB2=F ITyADJ=14
 ICtDFT=  3500011 ScaDFX=  1.000000  1.000000  1.000000  1.000000
 FoFCou: FMM=F IPFlag=           0 FMFlag=      100000 FMFlg1=        2001
         NFxFlg=           0 DoJE=T BraDBF=F KetDBF=T FulRan=T
         wScrn=  0.000000 ICntrl=       500 IOpCl=  0 I1Cent=   200000004 NGrid=           0
         NMat0=    1 NMatS0=      1 NMatT0=    0 NMatD0=    1 NMtDS0=    0 NMtDT0=    0
 Petite list used in FoFCou.
 Harris En= -1963.88612243116    
 JPrj=0 DoOrth=F DoCkMO=F.
 Leave Link  401 at Wed Jan 24 03:42:32 2018, MaxMem=  4294967296 cpu:             401.4 elap:              12.6
 (Enter /share/apps/g16/l502.exe)
 Integral symmetry usage will be decided dynamically.
 Closed shell SCF:
 Using DIIS extrapolation, IDIIS=  1040.
 NGot=  4294967296 LenX=  4293717438 LenY=  4293108258
 Requested convergence on RMS density matrix=1.00D-08 within  20 cycles.
 Requested convergence on MAX density matrix=1.00D-06.
 Requested convergence on             energy=1.00D-06.
 No special actions if energy rises.
 Fock matrices will be formed incrementally for  20 cycles.
 Integral accuracy reduced to 1.0D-05 until final iterations.

 Cycle   1  Pass 0  IDiag  1:
 FoFJK:  IHMeth= 1 ICntrl=       0 DoSepK=T KAlg= 0 I1Cent=           0 FoldK=F
 IRaf=         1 NMat=       1 IRICut=       1 DoRegI=T DoRafI=F ISym2E= 0 IDoP0=0 IntGTp=1.
 FoFCou: FMM=T IPFlag=           0 FMFlag=      100000 FMFlg1=        2001
         NFxFlg=           0 DoJE=T BraDBF=F KetDBF=F FulRan=T
         wScrn=  0.000000 ICntrl=       500 IOpCl=  0 I1Cent=           0 NGrid=           0
         NMat0=    1 NMatS0=      1 NMatT0=    0 NMatD0=    1 NMtDS0=    0 NMtDT0=    0
 Symmetry not used in FoFCou.
 FMM levels:  10  Number of levels for PrismC:   9
 E= -2048.31585503564    
 DIIS: error= 2.19D-02 at cycle   1 NSaved=   1.
 NSaved= 1 IEnMin= 1 EnMin= -2048.31585503564     IErMin= 1 ErrMin= 2.19D-02
 ErrMax= 2.19D-02  0.00D+00 EMaxC= 1.00D-01 BMatC= 8.31D-01 BMatP= 8.31D-01
 IDIUse=3 WtCom= 7.81D-01 WtEn= 2.19D-01
 Coeff-Com:  0.100D+01
 Coeff-En:   0.100D+01
 Coeff:      0.100D+01
 Gap=     0.248 Goal=   None    Shift=    0.000
 GapD=    0.248 DampG=1.000 DampE=0.500 DampFc=0.5000 IDamp=-1.
 Damping current iteration by 5.00D-01
 RMSDP=1.55D-03 MaxDP=1.32D-01              OVMax= 2.05D-01

 Cycle   2  Pass 0  IDiag  1:
 RMSU=  7.74D-04    CP:  9.98D-01
 E= -2048.51366253589     Delta-E=       -0.197807500253 Rises=F Damp=T
 DIIS: error= 1.23D-02 at cycle   2 NSaved=   2.
 NSaved= 2 IEnMin= 2 EnMin= -2048.51366253589     IErMin= 2 ErrMin= 1.23D-02
 ErrMax= 1.23D-02  0.00D+00 EMaxC= 1.00D-01 BMatC= 1.44D-01 BMatP= 8.31D-01
 IDIUse=3 WtCom= 8.77D-01 WtEn= 1.23D-01
 Coeff-Com: -0.201D+00 0.120D+01
 Coeff-En:   0.000D+00 0.100D+01
 Coeff:     -0.177D+00 0.118D+01
 Gap=     0.336 Goal=   None    Shift=    0.000
 RMSDP=5.75D-04 MaxDP=3.55D-02 DE=-1.98D-01 OVMax= 1.33D-01

 Cycle   3  Pass 0  IDiag  1:
 RMSU=  5.63D-04    CP:  9.94D-01  1.14D+00
 E= -2048.69417419990     Delta-E=       -0.180511664009 Rises=F Damp=F
 DIIS: error= 6.57D-03 at cycle   3 NSaved=   3.
 NSaved= 3 IEnMin= 3 EnMin= -2048.69417419990     IErMin= 3 ErrMin= 6.57D-03
 ErrMax= 6.57D-03  0.00D+00 EMaxC= 1.00D-01 BMatC= 6.07D-02 BMatP= 1.44D-01
 IDIUse=3 WtCom= 9.34D-01 WtEn= 6.57D-02
 Coeff-Com: -0.231D+00 0.545D+00 0.686D+00
 Coeff-En:   0.000D+00 0.000D+00 0.100D+01
 Coeff:     -0.216D+00 0.509D+00 0.707D+00
 Gap=     0.275 Goal=   None    Shift=    0.000
 RMSDP=3.42D-04 MaxDP=3.44D-02 DE=-1.81D-01 OVMax= 6.71D-02

 Cycle   4  Pass 0  IDiag  1:
 RMSU=  1.98D-04    CP:  9.95D-01  1.42D+00  6.81D-01
 E= -2048.74011026450     Delta-E=       -0.045936064603 Rises=F Damp=F
 DIIS: error= 2.92D-03 at cycle   4 NSaved=   4.
 NSaved= 4 IEnMin= 4 EnMin= -2048.74011026450     IErMin= 4 ErrMin= 2.92D-03
 ErrMax= 2.92D-03  0.00D+00 EMaxC= 1.00D-01 BMatC= 8.44D-03 BMatP= 6.07D-02
 IDIUse=3 WtCom= 9.71D-01 WtEn= 2.92D-02
 Coeff-Com: -0.967D-01 0.187D+00 0.377D+00 0.532D+00
 Coeff-En:   0.000D+00 0.000D+00 0.496D-01 0.950D+00
 Coeff:     -0.939D-01 0.182D+00 0.367D+00 0.545D+00
 Gap=     0.280 Goal=   None    Shift=    0.000
 RMSDP=1.22D-04 MaxDP=1.25D-02 DE=-4.59D-02 OVMax= 1.33D-02

 Cycle   5  Pass 0  IDiag  1:
 RMSU=  6.13D-05    CP:  9.94D-01  1.40D+00  8.09D-01  6.19D-01
 E= -2048.74696500278     Delta-E=       -0.006854738280 Rises=F Damp=F
 DIIS: error= 6.52D-04 at cycle   5 NSaved=   5.
 NSaved= 5 IEnMin= 5 EnMin= -2048.74696500278     IErMin= 5 ErrMin= 6.52D-04
 ErrMax= 6.52D-04  0.00D+00 EMaxC= 1.00D-01 BMatC= 2.93D-04 BMatP= 8.44D-03
 IDIUse=3 WtCom= 9.93D-01 WtEn= 6.52D-03
 Coeff-Com: -0.251D-01 0.431D-01 0.120D+00 0.242D+00 0.619D+00
 Coeff-En:   0.000D+00 0.000D+00 0.000D+00 0.000D+00 0.100D+01
 Coeff:     -0.249D-01 0.429D-01 0.120D+00 0.241D+00 0.622D+00
 Gap=     0.280 Goal=   None    Shift=    0.000
 RMSDP=2.53D-05 MaxDP=2.23D-03 DE=-6.85D-03 OVMax= 3.26D-03

 Failed to achieve initial convergence to 1.0D-08 in  6 cycles.
 Switch to full accuracy anyway.
 Cycle   6  Pass 1  IDiag  1:
 E= -2048.74724956415     Delta-E=       -0.000284561368 Rises=F Damp=F
 DIIS: error= 2.41D-04 at cycle   1 NSaved=   1.
 NSaved= 1 IEnMin= 1 EnMin= -2048.74724956415     IErMin= 1 ErrMin= 2.41D-04
 ErrMax= 2.41D-04  0.00D+00 EMaxC= 1.00D-01 BMatC= 7.48D-05 BMatP= 7.48D-05
 IDIUse=3 WtCom= 9.98D-01 WtEn= 2.41D-03
 Coeff-Com:  0.100D+01
 Coeff-En:   0.100D+01
 Coeff:      0.100D+01
 Gap=     0.280 Goal=   None    Shift=    0.000
 RMSDP=2.53D-05 MaxDP=2.23D-03 DE=-2.85D-04 OVMax= 2.10D-03

 Cycle   7  Pass 1  IDiag  1:
 RMSU=  1.12D-04    CP:  1.00D+00
 E= -2048.74730436092     Delta-E=       -0.000054796763 Rises=F Damp=F
 DIIS: error= 2.96D-04 at cycle   2 NSaved=   2.
 NSaved= 2 IEnMin= 2 EnMin= -2048.74730436092     IErMin= 1 ErrMin= 2.41D-04
 ErrMax= 2.96D-04  0.00D+00 EMaxC= 1.00D-01 BMatC= 4.30D-05 BMatP= 7.48D-05
 IDIUse=3 WtCom= 9.97D-01 WtEn= 2.96D-03
 Coeff-Com:  0.407D+00 0.593D+00
 Coeff-En:   0.000D+00 0.100D+01
 Coeff:      0.406D+00 0.594D+00
 Gap=     0.280 Goal=   None    Shift=    0.000
 RMSDP=1.09D-05 MaxDP=1.32D-03 DE=-5.48D-05 OVMax= 1.48D-03

 Cycle   8  Pass 1  IDiag  1:
 RMSU=  1.06D-05    CP:  1.00D+00  1.02D+00
 E= -2048.74733447418     Delta-E=       -0.000030113267 Rises=F Damp=F
 DIIS: error= 1.44D-04 at cycle   3 NSaved=   3.
 NSaved= 3 IEnMin= 3 EnMin= -2048.74733447418     IErMin= 3 ErrMin= 1.44D-04
 ErrMax= 1.44D-04  0.00D+00 EMaxC= 1.00D-01 BMatC= 1.05D-05 BMatP= 4.30D-05
 IDIUse=3 WtCom= 9.99D-01 WtEn= 1.44D-03
 Coeff-Com: -0.191D-01 0.318D+00 0.701D+00
 Coeff-En:   0.000D+00 0.141D+00 0.859D+00
 Coeff:     -0.191D-01 0.318D+00 0.701D+00
 Gap=     0.280 Goal=   None    Shift=    0.000
 RMSDP=5.53D-06 MaxDP=5.35D-04 DE=-3.01D-05 OVMax= 5.63D-04

 Cycle   9  Pass 1  IDiag  1:
 RMSU=  3.79D-06    CP:  1.00D+00  1.05D+00  7.58D-01
 E= -2048.74734393287     Delta-E=       -0.000009458687 Rises=F Damp=F
 DIIS: error= 2.66D-05 at cycle   4 NSaved=   4.
 NSaved= 4 IEnMin= 4 EnMin= -2048.74734393287     IErMin= 4 ErrMin= 2.66D-05
 ErrMax= 2.66D-05  0.00D+00 EMaxC= 1.00D-01 BMatC= 4.94D-07 BMatP= 1.05D-05
 IDIUse=1 WtCom= 1.00D+00 WtEn= 0.00D+00
 Coeff-Com: -0.304D-01 0.888D-01 0.259D+00 0.683D+00
 Coeff:     -0.304D-01 0.888D-01 0.259D+00 0.683D+00
 Gap=     0.280 Goal=   None    Shift=    0.000
 RMSDP=1.40D-06 MaxDP=1.47D-04 DE=-9.46D-06 OVMax= 4.66D-04

 Cycle  10  Pass 1  IDiag  1:
 RMSU=  1.26D-06    CP:  1.00D+00  1.06D+00  7.91D-01  1.10D+00
 E= -2048.74734474222     Delta-E=       -0.000000809355 Rises=F Damp=F
 DIIS: error= 1.58D-05 at cycle   5 NSaved=   5.
 NSaved= 5 IEnMin= 5 EnMin= -2048.74734474222     IErMin= 5 ErrMin= 1.58D-05
 ErrMax= 1.58D-05  0.00D+00 EMaxC= 1.00D-01 BMatC= 1.18D-07 BMatP= 4.94D-07
 IDIUse=1 WtCom= 1.00D+00 WtEn= 0.00D+00
 Coeff-Com: -0.288D-02-0.560D-01-0.120D+00 0.206D+00 0.973D+00
 Coeff:     -0.288D-02-0.560D-01-0.120D+00 0.206D+00 0.973D+00
 Gap=     0.280 Goal=   None    Shift=    0.000
 RMSDP=1.18D-06 MaxDP=7.60D-05 DE=-8.09D-07 OVMax= 2.18D-04

 Cycle  11  Pass 1  IDiag  1:
 RMSU=  4.89D-07    CP:  1.00D+00  1.06D+00  8.01D-01  1.38D+00  1.16D+00
 E= -2048.74734499207     Delta-E=       -0.000000249842 Rises=F Damp=F
 DIIS: error= 6.46D-06 at cycle   6 NSaved=   6.
 NSaved= 6 IEnMin= 6 EnMin= -2048.74734499207     IErMin= 6 ErrMin= 6.46D-06
 ErrMax= 6.46D-06  0.00D+00 EMaxC= 1.00D-01 BMatC= 2.78D-08 BMatP= 1.18D-07
 IDIUse=1 WtCom= 1.00D+00 WtEn= 0.00D+00
 Coeff-Com:  0.451D-02-0.458D-01-0.114D+00-0.451D-04 0.519D+00 0.636D+00
 Coeff:      0.451D-02-0.458D-01-0.114D+00-0.451D-04 0.519D+00 0.636D+00
 Gap=     0.280 Goal=   None    Shift=    0.000
 RMSDP=3.71D-07 MaxDP=3.78D-05 DE=-2.50D-07 OVMax= 1.16D-04

 Cycle  12  Pass 1  IDiag  1:
 RMSU=  1.85D-07    CP:  1.00D+00  1.06D+00  8.02D-01  1.45D+00  1.30D+00
                    CP:  9.10D-01
 E= -2048.74734503207     Delta-E=       -0.000000040006 Rises=F Damp=F
 DIIS: error= 1.58D-06 at cycle   7 NSaved=   7.
 NSaved= 7 IEnMin= 7 EnMin= -2048.74734503207     IErMin= 7 ErrMin= 1.58D-06
 ErrMax= 1.58D-06  0.00D+00 EMaxC= 1.00D-01 BMatC= 9.33D-10 BMatP= 2.78D-08
 IDIUse=1 WtCom= 1.00D+00 WtEn= 0.00D+00
 Coeff-Com:  0.128D-02-0.942D-02-0.250D-01-0.632D-02 0.815D-01 0.172D+00
 Coeff-Com:  0.786D+00
 Coeff:      0.128D-02-0.942D-02-0.250D-01-0.632D-02 0.815D-01 0.172D+00
 Coeff:      0.786D+00
 Gap=     0.280 Goal=   None    Shift=    0.000
 RMSDP=7.91D-08 MaxDP=5.08D-06 DE=-4.00D-08 OVMax= 1.96D-05

 Cycle  13  Pass 1  IDiag  1:
 RMSU=  5.19D-08    CP:  1.00D+00  1.06D+00  8.02D-01  1.46D+00  1.31D+00
                    CP:  9.97D-01  1.10D+00
 E= -2048.74734503372     Delta-E=       -0.000000001644 Rises=F Damp=F
 DIIS: error= 6.52D-07 at cycle   8 NSaved=   8.
 NSaved= 8 IEnMin= 8 EnMin= -2048.74734503372     IErMin= 8 ErrMin= 6.52D-07
 ErrMax= 6.52D-07  0.00D+00 EMaxC= 1.00D-01 BMatC= 3.62D-10 BMatP= 9.33D-10
 IDIUse=1 WtCom= 1.00D+00 WtEn= 0.00D+00
 Coeff-Com: -0.636D-03 0.833D-02 0.194D-01-0.213D-02-0.110D+00-0.896D-01
 Coeff-Com:  0.410D+00 0.765D+00
 Coeff:     -0.636D-03 0.833D-02 0.194D-01-0.213D-02-0.110D+00-0.896D-01
 Coeff:      0.410D+00 0.765D+00
 Gap=     0.280 Goal=   None    Shift=    0.000
 RMSDP=5.06D-08 MaxDP=3.11D-06 DE=-1.64D-09 OVMax= 1.14D-05

 Cycle  14  Pass 1  IDiag  1:
 RMSU=  2.88D-08    CP:  1.00D+00  1.06D+00  8.02D-01  1.46D+00  1.32D+00
                    CP:  1.04D+00  1.26D+00  1.03D+00
 E= -2048.74734503456     Delta-E=       -0.000000000839 Rises=F Damp=F
 DIIS: error= 1.80D-07 at cycle   9 NSaved=   9.
 NSaved= 9 IEnMin= 9 EnMin= -2048.74734503456     IErMin= 9 ErrMin= 1.80D-07
 ErrMax= 1.80D-07  0.00D+00 EMaxC= 1.00D-01 BMatC= 3.89D-11 BMatP= 3.62D-10
 IDIUse=1 WtCom= 1.00D+00 WtEn= 0.00D+00
 Coeff-Com: -0.443D-03 0.498D-02 0.120D-01 0.448D-03-0.590D-01-0.604D-01
 Coeff-Com:  0.895D-01 0.331D+00 0.682D+00
 Coeff:     -0.443D-03 0.498D-02 0.120D-01 0.448D-03-0.590D-01-0.604D-01
 Coeff:      0.895D-01 0.331D+00 0.682D+00
 Gap=     0.280 Goal=   None    Shift=    0.000
 RMSDP=1.40D-08 MaxDP=8.30D-07 DE=-8.39D-10 OVMax= 3.29D-06

 Cycle  15  Pass 1  IDiag  1:
 RMSU=  9.38D-09    CP:  1.00D+00  1.06D+00  8.02D-01  1.46D+00  1.32D+00
                    CP:  1.05D+00  1.29D+00  1.18D+00  1.09D+00
 E= -2048.74734503464     Delta-E=       -0.000000000083 Rises=F Damp=F
 DIIS: error= 6.99D-08 at cycle  10 NSaved=  10.
 NSaved=10 IEnMin=10 EnMin= -2048.74734503464     IErMin=10 ErrMin= 6.99D-08
 ErrMax= 6.99D-08  0.00D+00 EMaxC= 1.00D-01 BMatC= 4.65D-12 BMatP= 3.89D-11
 IDIUse=1 WtCom= 1.00D+00 WtEn= 0.00D+00
 Coeff-Com: -0.115D-05-0.249D-03-0.478D-03 0.170D-03 0.461D-02 0.326D-03
 Coeff-Com: -0.528D-01-0.561D-01 0.218D+00 0.886D+00
 Coeff:     -0.115D-05-0.249D-03-0.478D-03 0.170D-03 0.461D-02 0.326D-03
 Coeff:     -0.528D-01-0.561D-01 0.218D+00 0.886D+00
 Gap=     0.280 Goal=   None    Shift=    0.000
 RMSDP=7.11D-09 MaxDP=4.20D-07 DE=-8.28D-11 OVMax= 1.61D-06

 SCF Done:  E(RwB97XD) =  -2048.74734503     A.U. after   15 cycles
            NFock= 15  Conv=0.71D-08     -V/T= 2.0054
 KE= 2.037732660063D+03 PE=-1.582073345883D+04 EE= 6.214331770832D+03
 Leave Link  502 at Wed Jan 24 03:53:56 2018, MaxMem=  4294967296 cpu:           21125.3 elap:             684.2
 (Enter /share/apps/g16/l601.exe)
 Copying SCF densities to generalized density rwf, IOpCl= 0 IROHF=0.

 **********************************************************************

            Population analysis using the SCF density.

 **********************************************************************

 Orbital symmetries:
       Occupied  (A) (A) (A) (A) (A) (A) (A) (A) (A) (A) (A) (A)
                 (A) (A) (A) (A) (A) (A) (A) (A) (A) (A) (A) (A)
                 (A) (A) (A) (A) (A) (A) (A) (A) (A) (A) (A) (A)
                 (A) (A) (A) (A) (A) (A) (A) (A) (A) (A) (A) (A)
                 (A) (A) (A) (A) (A) (A) (A) (A) (A) (A) (A) (A)
                 (A) (A) (A) (A) (A) (A) (A) (A) (A) (A) (A) (A)
                 (A) (A) (A) (A) (A) (A) (A) (A) (A) (A) (A) (A)
                 (A) (A) (A) (A) (A) (A) (A) (A) (A) (A) (A) (A)
                 (A) (A) (A) (A) (A) (A) (A) (A) (A) (A) (A) (A)
                 (A) (A) (A) (A) (A) (A) (A) (A) (A) (A) (A) (A)
                 (A) (A) (A) (A) (A) (A) (A) (A) (A) (A) (A) (A)
                 (A) (A) (A) (A) (A) (A) (A) (A) (A) (A) (A) (A)
                 (A) (A) (A) (A) (A) (A) (A) (A) (A) (A)
       Virtual   (A) (A) (A) (A) (A) (A) (A) (A) (A) (A) (A) (A)
                 (A) (A) (A) (A) (A) (A) (A) (A) (A) (A) (A) (A)
                 (A) (A) (A) (A) (A) (A) (A) (A) (A) (A) (A) (A)
                 (A) (A) (A) (A) (A) (A) (A) (A) (A) (A) (A) (A)
                 (A) (A) (A) (A) (A) (A) (A) (A) (A) (A) (A) (A)
                 (A) (A) (A) (A) (A) (A) (A) (A) (A) (A) (A) (A)
                 (A) (A) (A) (A) (A) (A) (A) (A) (A) (A) (A) (A)
                 (A) (A) (A) (A) (A) (A) (A) (A) (A) (A) (A) (A)
                 (A) (A) (A) (A) (A) (A) (A) (A) (A) (A) (A) (A)
                 (A) (A) (A) (A) (A) (A) (A) (A) (A) (A) (A) (A)
                 (A) (A) (A) (A) (A) (A) (A) (A) (A) (A) (A) (A)
                 (A) (A) (A) (A) (A) (A) (A) (A) (A) (A) (A) (A)
                 (A) (A) (A) (A) (A) (A) (A) (A) (A) (A) (A) (A)
                 (A) (A) (A) (A) (A) (A) (A) (A) (A) (A) (A) (A)
                 (A) (A) (A) (A) (A) (A) (A) (A) (A) (A) (A) (A)
                 (A) (A) (A) (A) (A) (A) (A) (A) (A) (A) (A) (A)
                 (A) (A) (A) (A) (A) (A) (A) (A) (A) (A) (A) (A)
                 (A) (A) (A) (A) (A) (A) (A) (A) (A) (A) (A) (A)
                 (A) (A) (A) (A) (A) (A) (A) (A) (A) (A) (A) (A)
                 (A) (A) (A) (A) (A) (A) (A) (A) (A) (A) (A) (A)
                 (A) (A) (A) (A) (A) (A) (A) (A) (A) (A) (A) (A)
                 (A) (A) (A) (A) (A) (A) (A) (A) (A) (A) (A) (A)
                 (A) (A) (A) (A) (A) (A) (A) (A) (A) (A) (A) (A)
                 (A) (A) (A) (A) (A) (A) (A) (A) (A) (A) (A) (A)
                 (A) (A) (A) (A) (A) (A) (A) (A) (A) (A) (A) (A)
                 (A) (A) (A) (A) (A) (A) (A) (A) (A) (A) (A) (A)
                 (A) (A) (A) (A) (A) (A) (A) (A) (A) (A) (A) (A)
                 (A) (A) (A) (A) (A) (A) (A) (A) (A) (A) (A) (A)
                 (A) (A) (A) (A) (A) (A) (A) (A) (A) (A) (A) (A)
                 (A) (A) (A) (A) (A) (A) (A) (A) (A) (A) (A) (A)
                 (A) (A) (A) (A) (A) (A) (A) (A) (A) (A) (A) (A)
                 (A) (A) (A) (A) (A) (A) (A) (A) (A) (A) (A) (A)
                 (A) (A) (A) (A) (A) (A) (A) (A) (A) (A) (A) (A)
                 (A) (A) (A) (A) (A) (A) (A) (A) (A) (A) (A) (A)
                 (A) (A) (A) (A) (A) (A) (A) (A) (A) (A) (A) (A)
                 (A) (A) (A) (A) (A) (A) (A) (A) (A) (A) (A) (A)
                 (A) (A) (A) (A) (A) (A) (A) (A) (A) (A) (A) (A)
                 (A) (A) (A) (A) (A) (A) (A) (A) (A) (A) (A) (A)
                 (A) (A) (A) (A) (A) (A) (A) (A) (A) (A) (A) (A)
                 (A) (A) (A) (A) (A) (A) (A) (A) (A) (A) (A) (A)
                 (A) (A) (A) (A) (A) (A) (A) (A) (A) (A) (A) (A)
                 (A) (A) (A) (A) (A) (A) (A) (A) (A) (A) (A) (A)
                 (A) (A) (A) (A) (A) (A) (A) (A) (A) (A) (A) (A)
                 (A) (A) (A) (A) (A) (A) (A) (A) (A) (A) (A) (A)
                 (A) (A) (A) (A) (A) (A) (A) (A) (A) (A) (A) (A)
                 (A) (A) (A) (A) (A) (A) (A) (A) (A) (A) (A) (A)
                 (A) (A) (A) (A) (A) (A) (A) (A) (A) (A) (A) (A)
                 (A) (A) (A) (A) (A) (A) (A) (A) (A) (A) (A) (A)
                 (A) (A) (A) (A) (A) (A) (A)
 The electronic state is 1-A.
 Alpha  occ. eigenvalues --  -19.25691 -19.21887 -19.20434 -14.52535 -14.52266
 Alpha  occ. eigenvalues --  -14.48573 -14.48499 -14.48270 -14.47657 -14.46640
 Alpha  occ. eigenvalues --  -14.46073 -14.45555 -14.44227 -14.44131 -14.42297
 Alpha  occ. eigenvalues --  -14.41751 -14.41201 -14.40869 -14.40582 -14.40189
 Alpha  occ. eigenvalues --  -10.45292 -10.40858 -10.39992 -10.39926 -10.38050
 Alpha  occ. eigenvalues --  -10.37991 -10.37687 -10.37169 -10.35628 -10.35370
 Alpha  occ. eigenvalues --  -10.34712 -10.34177 -10.34027 -10.33888 -10.33179
 Alpha  occ. eigenvalues --  -10.33073 -10.33014 -10.32623 -10.31017 -10.30879
 Alpha  occ. eigenvalues --  -10.30668 -10.28356 -10.27804  -1.19280  -1.15228
 Alpha  occ. eigenvalues --   -1.12974  -1.12898  -1.11143  -1.10338  -1.09257
 Alpha  occ. eigenvalues --   -1.09139  -1.08262  -1.04943  -1.04800  -1.02300
 Alpha  occ. eigenvalues --   -1.01061  -1.00389  -0.99341  -0.98308  -0.96917
 Alpha  occ. eigenvalues --   -0.96681  -0.96328  -0.92619  -0.90906  -0.87662
 Alpha  occ. eigenvalues --   -0.86045  -0.83823  -0.83782  -0.83324  -0.82241
 Alpha  occ. eigenvalues --   -0.82197  -0.78720  -0.77042  -0.74874  -0.74325
 Alpha  occ. eigenvalues --   -0.73354  -0.73158  -0.72813  -0.70964  -0.70448
 Alpha  occ. eigenvalues --   -0.67063  -0.66844  -0.66341  -0.66217  -0.64324
 Alpha  occ. eigenvalues --   -0.64255  -0.63540  -0.62652  -0.62515  -0.61405
 Alpha  occ. eigenvalues --   -0.60645  -0.60378  -0.60332  -0.59487  -0.59343
 Alpha  occ. eigenvalues --   -0.59142  -0.57989  -0.56676  -0.56397  -0.56154
 Alpha  occ. eigenvalues --   -0.55812  -0.55548  -0.55316  -0.54495  -0.54169
 Alpha  occ. eigenvalues --   -0.53962  -0.53429  -0.53370  -0.53126  -0.52727
 Alpha  occ. eigenvalues --   -0.52648  -0.52149  -0.51677  -0.50642  -0.50127
 Alpha  occ. eigenvalues --   -0.49957  -0.49754  -0.49302  -0.48967  -0.48755
 Alpha  occ. eigenvalues --   -0.48623  -0.48233  -0.48059  -0.47386  -0.47174
 Alpha  occ. eigenvalues --   -0.46814  -0.45597  -0.44907  -0.44650  -0.43722
 Alpha  occ. eigenvalues --   -0.41009  -0.40847  -0.39301  -0.37746  -0.37690
 Alpha  occ. eigenvalues --   -0.37106  -0.37048  -0.36874  -0.35880  -0.34721
 Alpha  occ. eigenvalues --   -0.34398  -0.33577  -0.33401  -0.33047  -0.32965
 Alpha  occ. eigenvalues --   -0.32472  -0.32237  -0.31958  -0.31665  -0.30796
 Alpha  occ. eigenvalues --   -0.30389  -0.29860  -0.25790  -0.24857
 Alpha virt. eigenvalues --    0.03167   0.03934   0.07147   0.07969   0.08573
 Alpha virt. eigenvalues --    0.09495   0.10024   0.10374   0.11191   0.11788
 Alpha virt. eigenvalues --    0.12562   0.14130   0.14425   0.14861   0.15189
 Alpha virt. eigenvalues --    0.15866   0.15886   0.16943   0.17161   0.17834
 Alpha virt. eigenvalues --    0.18437   0.19421   0.19621   0.20574   0.20734
 Alpha virt. eigenvalues --    0.20919   0.21012   0.21326   0.21640   0.21768
 Alpha virt. eigenvalues --    0.22423   0.23293   0.23589   0.23649   0.23995
 Alpha virt. eigenvalues --    0.24061   0.24326   0.24490   0.24881   0.25088
 Alpha virt. eigenvalues --    0.25555   0.26394   0.27164   0.27343   0.28316
 Alpha virt. eigenvalues --    0.28937   0.29004   0.29783   0.30424   0.31089
 Alpha virt. eigenvalues --    0.31293   0.31757   0.32536   0.32856   0.33808
 Alpha virt. eigenvalues --    0.34012   0.34255   0.34874   0.35807   0.36283
 Alpha virt. eigenvalues --    0.36692   0.37351   0.37916   0.38953   0.39174
 Alpha virt. eigenvalues --    0.40161   0.40355   0.41104   0.41386   0.41717
 Alpha virt. eigenvalues --    0.42345   0.42705   0.43189   0.43528   0.44395
 Alpha virt. eigenvalues --    0.44760   0.44991   0.46262   0.46786   0.47232
 Alpha virt. eigenvalues --    0.47859   0.48224   0.48517   0.49020   0.49601
 Alpha virt. eigenvalues --    0.49898   0.50316   0.50466   0.50669   0.51299
 Alpha virt. eigenvalues --    0.51589   0.51878   0.52497   0.52846   0.53222
 Alpha virt. eigenvalues --    0.53420   0.54409   0.54693   0.55274   0.55739
 Alpha virt. eigenvalues --    0.55926   0.56271   0.57158   0.57222   0.57841
 Alpha virt. eigenvalues --    0.57983   0.58431   0.59046   0.59177   0.59527
 Alpha virt. eigenvalues --    0.60008   0.60432   0.60606   0.61103   0.61646
 Alpha virt. eigenvalues --    0.61869   0.62376   0.62586   0.62878   0.63504
 Alpha virt. eigenvalues --    0.63971   0.64131   0.64354   0.64987   0.65417
 Alpha virt. eigenvalues --    0.65517   0.66242   0.66550   0.66692   0.67669
 Alpha virt. eigenvalues --    0.67916   0.68347   0.68701   0.68881   0.69240
 Alpha virt. eigenvalues --    0.70246   0.70376   0.70577   0.70765   0.71528
 Alpha virt. eigenvalues --    0.71862   0.72554   0.73258   0.73423   0.73832
 Alpha virt. eigenvalues --    0.74048   0.74326   0.75062   0.75340   0.75639
 Alpha virt. eigenvalues --    0.75735   0.76130   0.76812   0.76885   0.77199
 Alpha virt. eigenvalues --    0.77389   0.77794   0.78433   0.78660   0.78963
 Alpha virt. eigenvalues --    0.79140   0.79486   0.79636   0.80577   0.80987
 Alpha virt. eigenvalues --    0.81151   0.82001   0.82274   0.82714   0.83286
 Alpha virt. eigenvalues --    0.83814   0.84066   0.84484   0.84859   0.85213
 Alpha virt. eigenvalues --    0.85880   0.86015   0.87003   0.87132   0.87604
 Alpha virt. eigenvalues --    0.88346   0.88908   0.89096   0.89681   0.89868
 Alpha virt. eigenvalues --    0.89973   0.90610   0.91341   0.91753   0.92188
 Alpha virt. eigenvalues --    0.92608   0.92967   0.93223   0.93746   0.94030
 Alpha virt. eigenvalues --    0.94373   0.95226   0.95498   0.95886   0.96264
 Alpha virt. eigenvalues --    0.96640   0.97502   0.98254   0.98698   0.98766
 Alpha virt. eigenvalues --    0.99241   0.99903   1.00392   1.00697   1.00983
 Alpha virt. eigenvalues --    1.01680   1.02083   1.02471   1.03062   1.03513
 Alpha virt. eigenvalues --    1.03680   1.04071   1.04344   1.04911   1.05277
 Alpha virt. eigenvalues --    1.06153   1.06910   1.06958   1.07349   1.07545
 Alpha virt. eigenvalues --    1.08400   1.09219   1.10097   1.10705   1.11060
 Alpha virt. eigenvalues --    1.11525   1.12142   1.12398   1.12512   1.12902
 Alpha virt. eigenvalues --    1.13294   1.13502   1.14431   1.14927   1.15619
 Alpha virt. eigenvalues --    1.16033   1.16154   1.16522   1.16773   1.17949
 Alpha virt. eigenvalues --    1.18150   1.18621   1.18945   1.19360   1.19760
 Alpha virt. eigenvalues --    1.20434   1.20687   1.20782   1.21279   1.21419
 Alpha virt. eigenvalues --    1.22149   1.22336   1.22647   1.23033   1.23216
 Alpha virt. eigenvalues --    1.23768   1.24054   1.24357   1.25012   1.25202
 Alpha virt. eigenvalues --    1.25724   1.26138   1.26781   1.27380   1.28063
 Alpha virt. eigenvalues --    1.28288   1.28927   1.29703   1.30094   1.30785
 Alpha virt. eigenvalues --    1.32190   1.32248   1.33627   1.33842   1.34334
 Alpha virt. eigenvalues --    1.34901   1.35344   1.35964   1.36299   1.37616
 Alpha virt. eigenvalues --    1.38579   1.38894   1.39347   1.39604   1.40085
 Alpha virt. eigenvalues --    1.41219   1.42135   1.42572   1.43389   1.45673
 Alpha virt. eigenvalues --    1.45805   1.46227   1.46314   1.47629   1.48724
 Alpha virt. eigenvalues --    1.48989   1.49881   1.50131   1.50493   1.50954
 Alpha virt. eigenvalues --    1.51344   1.52062   1.53070   1.53389   1.54945
 Alpha virt. eigenvalues --    1.56161   1.56382   1.56575   1.56942   1.57638
 Alpha virt. eigenvalues --    1.58327   1.58683   1.59189   1.60412   1.61039
 Alpha virt. eigenvalues --    1.61623   1.61811   1.63161   1.63488   1.64128
 Alpha virt. eigenvalues --    1.64300   1.64900   1.65345   1.66088   1.66643
 Alpha virt. eigenvalues --    1.66997   1.67485   1.68113   1.68790   1.69293
 Alpha virt. eigenvalues --    1.70605   1.70878   1.70920   1.71189   1.71676
 Alpha virt. eigenvalues --    1.72080   1.72464   1.72932   1.73341   1.73709
 Alpha virt. eigenvalues --    1.74246   1.74678   1.75008   1.75253   1.75777
 Alpha virt. eigenvalues --    1.76200   1.76465   1.76871   1.76942   1.77566
 Alpha virt. eigenvalues --    1.77915   1.78269   1.78410   1.78778   1.78978
 Alpha virt. eigenvalues --    1.79216   1.79440   1.80193   1.80255   1.80559
 Alpha virt. eigenvalues --    1.80633   1.81026   1.81374   1.81653   1.81822
 Alpha virt. eigenvalues --    1.82110   1.82957   1.83598   1.83706   1.84753
 Alpha virt. eigenvalues --    1.84790   1.85805   1.86184   1.86796   1.87298
 Alpha virt. eigenvalues --    1.87644   1.87902   1.88356   1.88409   1.88889
 Alpha virt. eigenvalues --    1.89456   1.89980   1.90643   1.90874   1.91579
 Alpha virt. eigenvalues --    1.91974   1.92596   1.93364   1.93502   1.93853
 Alpha virt. eigenvalues --    1.94695   1.95181   1.95869   1.96757   1.97716
 Alpha virt. eigenvalues --    1.98155   1.99130   1.99888   2.00260   2.00635
 Alpha virt. eigenvalues --    2.01524   2.01663   2.02610   2.03671   2.03926
 Alpha virt. eigenvalues --    2.04244   2.05227   2.05994   2.06758   2.07115
 Alpha virt. eigenvalues --    2.07348   2.08291   2.08349   2.08756   2.09198
 Alpha virt. eigenvalues --    2.10534   2.11296   2.12452   2.12674   2.13074
 Alpha virt. eigenvalues --    2.13453   2.14155   2.14548   2.16373   2.17580
 Alpha virt. eigenvalues --    2.18056   2.19119   2.19596   2.20119   2.21057
 Alpha virt. eigenvalues --    2.21411   2.22116   2.22351   2.22746   2.23367
 Alpha virt. eigenvalues --    2.24690   2.24859   2.25846   2.26148   2.26332
 Alpha virt. eigenvalues --    2.27252   2.27767   2.28809   2.29565   2.29696
 Alpha virt. eigenvalues --    2.30089   2.30736   2.31315   2.31776   2.32957
 Alpha virt. eigenvalues --    2.33085   2.33597   2.34108   2.34661   2.34941
 Alpha virt. eigenvalues --    2.35137   2.35623   2.36344   2.37054   2.37388
 Alpha virt. eigenvalues --    2.37616   2.38114   2.39299   2.39912   2.41510
 Alpha virt. eigenvalues --    2.41841   2.42687   2.43020   2.43852   2.44010
 Alpha virt. eigenvalues --    2.44607   2.45123   2.45681   2.45875   2.46341
 Alpha virt. eigenvalues --    2.47566   2.48177   2.50118   2.50600   2.51913
 Alpha virt. eigenvalues --    2.52529   2.53754   2.54359   2.55653   2.56188
 Alpha virt. eigenvalues --    2.56585   2.57861   2.58455   2.58666   2.59792
 Alpha virt. eigenvalues --    2.60906   2.61302   2.61930   2.62464   2.63289
 Alpha virt. eigenvalues --    2.64843   2.65163   2.65381   2.65510   2.65914
 Alpha virt. eigenvalues --    2.66792   2.68630   2.68944   2.69232   2.69619
 Alpha virt. eigenvalues --    2.69902   2.70797   2.71155   2.71567   2.72378
 Alpha virt. eigenvalues --    2.72523   2.74551   2.75273   2.75663   2.76048
 Alpha virt. eigenvalues --    2.76811   2.78408   2.78832   2.79426   2.79470
 Alpha virt. eigenvalues --    2.79701   2.80235   2.80600   2.80879   2.81211
 Alpha virt. eigenvalues --    2.81792   2.82212   2.82900   2.83806   2.84375
 Alpha virt. eigenvalues --    2.84729   2.85292   2.86189   2.86693   2.87140
 Alpha virt. eigenvalues --    2.87882   2.88057   2.89218   2.92555   2.94073
 Alpha virt. eigenvalues --    2.94352   2.95916   2.96270   2.98158   2.99246
 Alpha virt. eigenvalues --    3.00068   3.00782   3.02475   3.04846   3.05644
 Alpha virt. eigenvalues --    3.07110   3.09546   3.10704   3.13262   3.14735
 Alpha virt. eigenvalues --    3.15464   3.15957   3.16893   3.17885   3.21145
 Alpha virt. eigenvalues --    3.21613   3.22730   3.23610   3.24153   3.26211
 Alpha virt. eigenvalues --    3.44952   3.47097   3.48097   3.49502   3.50444
 Alpha virt. eigenvalues --    3.53424   3.54233   3.56413   3.57805   3.60215
 Alpha virt. eigenvalues --    3.63476   3.70846   3.74825
          Condensed to atoms (all electrons):
 Mulliken charges:
               1
     1  N   -0.313620
     2  C    0.181089
     3  C    0.054076
     4  N   -0.260494
     5  C    0.136510
     6  H    0.026157
     7  N   -0.291363
     8  C    0.137167
     9  H    0.009765
    10  N   -0.289749
    11  C    0.253039
    12  C    0.110759
    13  N   -0.055961
    14  H    0.110002
    15  H    0.083899
    16  H    0.024805
    17  H    0.030993
    18  H    0.026675
    19  N   -0.304506
    20  C    0.241445
    21  C    0.180264
    22  N   -0.093787
    23  H    0.111556
    24  H    0.112243
    25  N   -0.305318
    26  C    0.218015
    27  N   -0.145889
    28  H    0.126674
    29  C    0.175986
    30  O   -0.323040
    31  C   -0.002333
    32  N   -0.225266
    33  C    0.132738
    34  H    0.019598
    35  H    0.030231
    36  H    0.027415
    37  H    0.023239
    38  H    0.062732
    39  H    0.058231
    40  H    0.069130
    41  H    0.028720
    42  C   -0.111994
    43  O   -0.265423
    44  C    0.166841
    45  H    0.132381
    46  N   -0.120931
    47  O   -0.339926
    48  C    0.336243
    49  H    0.046999
    50  C    0.166162
    51  C    0.037041
    52  N   -0.282533
    53  H    0.036291
    54  H    0.035998
    55  H    0.028117
    56  H    0.125461
    57  H    0.116505
    58  N   -0.058995
    59  C    0.081478
    60  C    0.255299
    61  N   -0.279583
    62  H    0.045745
    63  C    0.155274
    64  N   -0.299240
    65  H    0.036563
    66  C    0.135394
    67  N   -0.264418
    68  C    0.025971
    69  C    0.178575
    70  N   -0.311122
 Sum of Mulliken charges =  -0.00000
 Mulliken charges with hydrogens summed into heavy atoms:
               1
     1  N   -0.313620
     2  C    0.263562
     3  C    0.054076
     4  N   -0.260494
     5  C    0.162667
     7  N   -0.291363
     8  C    0.146932
    10  N   -0.289749
    11  C    0.253039
    12  C    0.110759
    13  N    0.137941
    19  N   -0.304506
    20  C    0.241445
    21  C    0.261149
    22  N    0.130011
    25  N   -0.305318
    26  C    0.218015
    27  N   -0.019215
    29  C    0.175986
    30  O   -0.323040
    31  C   -0.002333
    32  N   -0.225266
    33  C    0.152336
    42  C   -0.083275
    43  O   -0.265423
    44  C    0.166841
    46  N    0.011450
    47  O   -0.339926
    48  C    0.336243
    50  C    0.213161
    51  C    0.227135
    52  N   -0.282533
    58  N    0.182971
    59  C    0.081478
    60  C    0.255299
    61  N   -0.279583
    63  C    0.201019
    64  N   -0.299240
    66  C    0.171957
    67  N   -0.264418
    68  C    0.025971
    69  C    0.278981
    70  N   -0.311122
 Electronic spatial extent (au):  <R**2>=          21950.1929
 Charge=             -0.0000 electrons
 Dipole moment (field-independent basis, Debye):
    X=             -8.0264    Y=              6.0816    Z=             -2.5875  Tot=             10.3973
 Quadrupole moment (field-independent basis, Debye-Ang):
   XX=           -153.2351   YY=           -219.7210   ZZ=           -255.0885
   XY=             -0.7355   XZ=             -0.1678   YZ=              8.9211
 Traceless Quadrupole moment (field-independent basis, Debye-Ang):
   XX=             56.1131   YY=            -10.3728   ZZ=            -45.7403
   XY=             -0.7355   XZ=             -0.1678   YZ=              8.9211
 Octapole moment (field-independent basis, Debye-Ang**2):
  XXX=             67.2919  YYY=            130.2788  ZZZ=             -0.7934  XYY=            -82.4526
  XXY=             17.4497  XXZ=             24.2204  XZZ=            -42.0288  YZZ=             28.4166
  YYZ=            -53.5182  XYZ=             62.1298
 Hexadecapole moment (field-independent basis, Debye-Ang**3):
 XXXX=         -14721.4316 YYYY=          -5975.1877 ZZZZ=          -3667.3566 XXXY=           -505.1303
 XXXZ=           -170.1907 YYYX=             35.3431 YYYZ=             92.3448 ZZZX=              1.0957
 ZZZY=             -9.6231 XXYY=          -3298.8144 XXZZ=          -3682.6925 YYZZ=          -1657.6740
 XXYZ=            -72.0987 YYXZ=            200.2919 ZZXY=            -28.2239
 N-N= 5.519921682904D+03 E-N=-1.582073345583D+04  KE= 2.037732660063D+03
 No NMR shielding tensors so no spin-rotation constants.
 Leave Link  601 at Wed Jan 24 03:53:58 2018, MaxMem=  4294967296 cpu:              47.2 elap:               1.7
 (Enter /share/apps/g16/l9999.exe)
 1\1\GINC-COMPUTE-0-3\SP\RwB97XD\CC-pVDZ\C23H27N17O3\SATYA\24-Jan-2018\
 0\\#p wb97xd/cc-pvdz sp scf=(maxcycles=20)\\Base pair stacking\\0,1\N,
 0,5.19737,1.57501,-6.89828\C,0,6.29608,2.55348,-7.0143\C,0,3.21182,0.6
 5159,-6.69292\N,0,4.1192,-0.39433,-6.77926\C,0,5.27911,0.20387,-6.8995
 2\H,0,6.23555,-0.31123,-6.99353\N,0,1.21483,1.89126,-6.49748\C,0,1.976
 62,2.9869,-6.58006\H,0,1.43825,3.9324,-6.5305\N,0,3.29738,3.08947,-6.7
 1404\C,0,3.8616,1.87148,-6.76482\C,0,1.81249,0.68091,-6.55168\N,0,1.05
 375,-0.41395,-6.46941\H,0,1.45351,-1.33055,-6.50512\H,0,0.06043,-0.355
 36,-6.36934\H,0,6.77442,2.41826,-7.88211\H,0,5.92297,3.48021,-6.98134\
 H,0,6.93855,2.42756,-6.25841\N,0,2.24532,4.32235,-3.30587\C,0,1.09276,
 3.577,-3.2418\C,0,2.30649,5.79673,-3.36196\N,0,-2.3739,3.40276,-3.1250
 2\H,0,-3.07554,2.69241,-3.0766\H,0,-2.68983,4.3516,-3.14981\N,0,-0.167
 38,4.0624,-3.2195\C,0,-1.06781,3.09765,-3.15541\N,0,-0.75982,1.75933,-
 3.11607\H,0,-1.51373,1.09132,-3.06753\C,0,0.52967,1.23722,-3.13795\O,0
 ,0.69879,0.01224,-3.09835\C,0,1.50783,2.2616,-3.20671\N,0,2.8931,2.182
 72,-3.24792\C,0,3.28627,3.4262,-3.30611\H,0,4.32767,3.74673,-3.35104\H
 ,0,2.7636,6.08124,-4.20392\H,0,1.37884,6.16753,-3.34604\H,0,2.8155,6.1
 411,-2.57385\H,0,-5.72047,-1.73471,-3.47929\H,0,-5.52118,-1.91269,-1.7
 3767\H,0,-5.00288,-0.42793,-2.53655\H,0,-2.22646,-5.03846,-3.32541\C,0
 ,-2.35064,-3.96263,-3.20126\O,0,-0.03716,-3.48484,-3.41716\C,0,-1.1985
 6,-3.11499,-3.24647\H,0,-0.67768,-1.14096,-3.10434\N,0,-1.4667,-1.7714
 4,-3.07849\O,0,-2.83188,0.01152,-2.74007\C,0,-2.69428,-1.19118,-2.8787
 2\H,0,-4.46868,-4.02705,-2.96548\C,0,-3.5612,-3.42619,-3.00792\C,0,-5.
 08769,-1.49983,-2.63639\N,0,-3.75591,-2.07389,-2.84744\H,0,-6.60152,2.
 99842,-5.89654\H,0,-5.25332,3.31539,-5.03399\H,0,-6.55188,2.64936,-4.3
 0308\H,0,-1.84703,-2.67212,-6.44907\H,0,-3.53976,-2.88358,-6.4421\N,0,
 -2.75589,-2.27132,-6.33296\C,0,-2.91654,-0.97801,-6.04537\C,0,-4.17738
 ,0.98479,-5.57695\N,0,-3.10646,1.78337,-5.43612\H,0,-1.0621,1.66839,-5
 .52545\C,0,-1.9825,1.09411,-5.622\N,0,-1.81952,-0.20126,-5.91012\H,0,-
 7.30584,0.17324,-5.656\C,0,-6.21598,0.18464,-5.68774\N,0,-5.46681,-0.8
 6081,-5.93966\C,0,-4.17195,-0.36729,-5.87251\C,0,-6.01829,2.68224,-5.1
 4829\N,0,-5.50148,1.33521,-5.45881\\Version=EM64L-G16RevA.03\State=1-A
 \HF=-2048.747345\RMSD=7.109e-09\Dipole=-3.9301503,1.1341927,-0.0241773
 \Quadrupole=31.6709444,-3.1542318,-28.5167126,19.1004274,-14.2734638,6
 .3907081\PG=C01 [X(C23H27N17O3)]\\@


 Luck is a matter of preparation meeting opportunity.
                                    -- Oprah Winfrey
 Job cpu time:       0 days  6 hours  2 minutes 15.8 seconds.
 Elapsed time:       0 days  0 hours 11 minutes 43.7 seconds.
 File lengths (MBytes):  RWF=    298 Int=      0 D2E=      0 Chk=     33 Scr=      1
 Normal termination of Gaussian 16 at Wed Jan 24 03:53:58 2018.
