 Entering Gaussian System, Link 0=g16
 Input=str45.0.-2.0.com
 Output=str45.0.-2.0.log
 Initial command:
 /share/apps/g16/l1.exe "/state/partition1/scr/Gau-2210.inp" -scrdir="/state/partition1/scr/"
 Entering Link 1 = /share/apps/g16/l1.exe PID=      2211.
  
 Copyright (c) 1988,1990,1992,1993,1995,1998,2003,2009,2016,
            Gaussian, Inc.  All Rights Reserved.
  
 This is part of the Gaussian(R) 16 program.  It is based on
 the Gaussian(R) 09 system (copyright 2009, Gaussian, Inc.),
 the Gaussian(R) 03 system (copyright 2003, Gaussian, Inc.),
 the Gaussian(R) 98 system (copyright 1998, Gaussian, Inc.),
 the Gaussian(R) 94 system (copyright 1995, Gaussian, Inc.),
 the Gaussian 92(TM) system (copyright 1992, Gaussian, Inc.),
 the Gaussian 90(TM) system (copyright 1990, Gaussian, Inc.),
 the Gaussian 88(TM) system (copyright 1988, Gaussian, Inc.),
 the Gaussian 86(TM) system (copyright 1986, Carnegie Mellon
 University), and the Gaussian 82(TM) system (copyright 1983,
 Carnegie Mellon University). Gaussian is a federally registered
 trademark of Gaussian, Inc.
  
 This software contains proprietary and confidential information,
 including trade secrets, belonging to Gaussian, Inc.
  
 This software is provided under written license and may be
 used, copied, transmitted, or stored only in accord with that
 written license.
  
 The following legend is applicable only to US Government
 contracts under FAR:
  
                    RESTRICTED RIGHTS LEGEND
  
 Use, reproduction and disclosure by the US Government is
 subject to restrictions as set forth in subparagraphs (a)
 and (c) of the Commercial Computer Software - Restricted
 Rights clause in FAR 52.227-19.
  
 Gaussian, Inc.
 340 Quinnipiac St., Bldg. 40, Wallingford CT 06492
  
  
 ---------------------------------------------------------------
 Warning -- This program may not be used in any manner that
 competes with the business of Gaussian, Inc. or will provide
 assistance to any competitor of Gaussian, Inc.  The licensee
 of this program is prohibited from giving any competitor of
 Gaussian, Inc. access to this program.  By using this program,
 the user acknowledges that Gaussian, Inc. is engaged in the
 business of creating and licensing software in the field of
 computational chemistry and represents and warrants to the
 licensee that it is not a competitor of Gaussian, Inc. and that
 it will not use this program in any manner prohibited above.
 ---------------------------------------------------------------
  

 Cite this work as:
 Gaussian 16, Revision A.03,
 M. J. Frisch, G. W. Trucks, H. B. Schlegel, G. E. Scuseria, 
 M. A. Robb, J. R. Cheeseman, G. Scalmani, V. Barone, 
 G. A. Petersson, H. Nakatsuji, X. Li, M. Caricato, A. V. Marenich, 
 J. Bloino, B. G. Janesko, R. Gomperts, B. Mennucci, H. P. Hratchian, 
 J. V. Ortiz, A. F. Izmaylov, J. L. Sonnenberg, D. Williams-Young, 
 F. Ding, F. Lipparini, F. Egidi, J. Goings, B. Peng, A. Petrone, 
 T. Henderson, D. Ranasinghe, V. G. Zakrzewski, J. Gao, N. Rega, 
 G. Zheng, W. Liang, M. Hada, M. Ehara, K. Toyota, R. Fukuda, 
 J. Hasegawa, M. Ishida, T. Nakajima, Y. Honda, O. Kitao, H. Nakai, 
 T. Vreven, K. Throssell, J. A. Montgomery, Jr., J. E. Peralta, 
 F. Ogliaro, M. J. Bearpark, J. J. Heyd, E. N. Brothers, K. N. Kudin, 
 V. N. Staroverov, T. A. Keith, R. Kobayashi, J. Normand, 
 K. Raghavachari, A. P. Rendell, J. C. Burant, S. S. Iyengar, 
 J. Tomasi, M. Cossi, J. M. Millam, M. Klene, C. Adamo, R. Cammi, 
 J. W. Ochterski, R. L. Martin, K. Morokuma, O. Farkas, 
 J. B. Foresman, and D. J. Fox, Gaussian, Inc., Wallingford CT, 2016.
 
 ******************************************
 Gaussian 16:  EM64L-G16RevA.03 25-Dec-2016
                23-Jan-2018 
 ******************************************
 %nprocshared=32
 Will use up to   32 processors via shared memory.
 %mem=32GB
 %chk=allatoms_t.chk
 ---------------------------------------
 #p wb97xd/cc-pvdz sp scf=(maxcycles=20)
 ---------------------------------------
 1/38=1,172=1/1;
 2/12=2,17=6,18=5,40=1/2;
 3/5=16,11=2,25=1,30=1,74=-58/1,2,3;
 4//1;
 5/5=2,7=20,38=5/2;
 6/7=2,8=2,9=2,10=2,28=1/1;
 99/5=1,9=1/99;
 Leave Link    1 at Tue Jan 23 14:10:58 2018, MaxMem=  4294967296 cpu:               2.7 elap:               0.1
 (Enter /share/apps/g16/l101.exe)
 ------------------
 Base pair stacking
 ------------------
 Symbolic Z-matrix:
 Charge =  0 Multiplicity = 1
 N                     8.3141    3.97506  -6.47105 
 C                     9.42072   4.94609  -6.57363 
 C                     6.31626   3.05997  -6.37851 
 N                     7.22577   2.01912  -6.25948 
 C                     8.39299   2.61209  -6.32 
 H                     9.35307   2.09879  -6.25909 
 N                     4.31207   4.29491  -6.52372 
 C                     5.08034   5.38288  -6.6407 
 H                     4.54148   6.32341  -6.74702 
 N                     6.40806   5.483    -6.64603 
 C                     6.97224   4.27159  -6.50964 
 C                     4.9099    3.09106  -6.38803 
 N                     4.1447    2.00387  -6.27112 
 H                     4.54431   1.09226  -6.1686 
 H                     3.14647   2.06349  -6.28203 
 H                     9.98713   4.72536  -7.36775 
 H                     9.04791   5.86773  -6.67715 
 H                     9.98018   4.90571  -5.74576 
 N                     3.15473   6.16803  -3.26456 
 C                     2.00026   5.42288  -3.26328 
 C                     3.22055   7.6401   -3.36129 
 N                    -1.46559   5.24594  -3.39872 
 H                    -2.1692    4.53613  -3.38065 
 H                    -1.77838   6.19299  -3.47605 
 N                     0.74216   5.90642  -3.34948 
 C                    -0.16097   4.94245  -3.32272 
 N                     0.14265   3.60653  -3.21948 
 H                    -0.61308   2.93895  -3.20649 
 C                     1.42997   3.08636  -3.12957 
 O                     1.59513   1.86349  -3.03986 
 C                     2.41099   4.10994  -3.15705 
 N                     3.79547   4.03238  -3.09292 
 C                     4.19242   5.2742   -3.16 
 H                     5.23443   5.59512  -3.13738 
 H                     3.73902   7.89946  -4.17537 
 H                     2.29445   8.00951  -3.42565 
 H                     3.66983   8.00945  -2.54856 
 H                    -4.77894   0.09388  -3.84208 
 H                    -4.70953  -0.03016  -2.08582 
 H                    -4.1327    1.43031  -2.88935 
 H                    -1.30746  -3.19716  -3.32784 
 C                    -1.44003  -2.11826  -3.2464 
 O                     0.88331  -1.64308  -3.30466 
 C                    -0.28739  -1.27029  -3.23206 
 H                     0.22239   0.70813  -3.11248 
 N                    -0.56666   0.07729  -3.12585 
 O                    -1.95239   1.86729  -2.94466 
 C                    -1.80541   0.66115  -3.03565 
 H                    -3.56975  -2.1793   -3.16654 
 C                    -2.66136  -1.57836  -3.16 
 C                    -4.21035   0.3557   -2.96218 
 N                    -2.86683  -0.22213  -3.05609 
 H                    -3.52216   5.38709  -6.86174 
 H                    -2.27121   5.80475  -5.90113 
 H                    -3.64045   5.20684  -5.24405 
 H                     1.25361  -0.26632  -6.31721 
 H                    -0.43091  -0.4914   -6.46493 
 N                     0.33833   0.13606  -6.33931 
 C                     0.1508    1.45081  -6.20724 
 C                    -1.14858   3.44016  -6.08142 
 N                    -0.09685   4.25886  -5.91402 
 H                     1.9454    4.15393  -5.77681 
 C                     1.03913   3.56429  -5.90822 
 N                     1.22903   2.24746  -6.04035 
 H                    -4.25301   2.59614  -6.40123 
 C                    -3.1658    2.61416  -6.32 
 N                    -2.39629   1.55503  -6.38132 
 C                    -1.11469   2.0647   -6.23142 
 C                    -3.02116   5.15615  -6.02768 
 N                    -2.47712   3.78885  -6.1396 
 
 ITRead=  0  0  0  0  0  0  0  0  0  0  0  0  0  0  0  0  0  0  0  0
 ITRead=  0  0  0  0  0  0  0  0  0  0  0  0  0  0  0  0  0  0  0  0
 ITRead=  0  0  0  0  0  0  0  0  0  0  0  0  0  0  0  0  0  0  0  0
 ITRead=  0  0  0  0  0  0  0  0  0  0
 MicOpt= -1 -1 -1 -1 -1 -1 -1 -1 -1 -1 -1 -1 -1 -1 -1 -1 -1 -1 -1 -1
 MicOpt= -1 -1 -1 -1 -1 -1 -1 -1 -1 -1 -1 -1 -1 -1 -1 -1 -1 -1 -1 -1
 MicOpt= -1 -1 -1 -1 -1 -1 -1 -1 -1 -1 -1 -1 -1 -1 -1 -1 -1 -1 -1 -1
 MicOpt= -1 -1 -1 -1 -1 -1 -1 -1 -1 -1
 NAtoms=     70 NQM=       70 NQMF=       0 NMMI=      0 NMMIF=      0
                NMic=       0 NMicF=      0.
                    Isotopes and Nuclear Properties:
 (Nuclear quadrupole moments (NQMom) in fm**2, nuclear magnetic moments (NMagM)
  in nuclear magnetons)

  Atom         1           2           3           4           5           6           7           8           9          10
 IAtWgt=          14          12          12          14          12           1          14          12           1          14
 AtmWgt=  14.0030740  12.0000000  12.0000000  14.0030740  12.0000000   1.0078250  14.0030740  12.0000000   1.0078250  14.0030740
 NucSpn=           2           0           0           2           0           1           2           0           1           2
 AtZEff=  -0.0000000  -0.0000000  -0.0000000  -0.0000000  -0.0000000  -0.0000000  -0.0000000  -0.0000000  -0.0000000  -0.0000000
 NQMom=    2.0440000   0.0000000   0.0000000   2.0440000   0.0000000   0.0000000   2.0440000   0.0000000   0.0000000   2.0440000
 NMagM=    0.4037610   0.0000000   0.0000000   0.4037610   0.0000000   2.7928460   0.4037610   0.0000000   2.7928460   0.4037610
 AtZNuc=   7.0000000   6.0000000   6.0000000   7.0000000   6.0000000   1.0000000   7.0000000   6.0000000   1.0000000   7.0000000

  Atom        11          12          13          14          15          16          17          18          19          20
 IAtWgt=          12          12          14           1           1           1           1           1          14          12
 AtmWgt=  12.0000000  12.0000000  14.0030740   1.0078250   1.0078250   1.0078250   1.0078250   1.0078250  14.0030740  12.0000000
 NucSpn=           0           0           2           1           1           1           1           1           2           0
 AtZEff=  -0.0000000  -0.0000000  -0.0000000  -0.0000000  -0.0000000  -0.0000000  -0.0000000  -0.0000000  -0.0000000  -0.0000000
 NQMom=    0.0000000   0.0000000   2.0440000   0.0000000   0.0000000   0.0000000   0.0000000   0.0000000   2.0440000   0.0000000
 NMagM=    0.0000000   0.0000000   0.4037610   2.7928460   2.7928460   2.7928460   2.7928460   2.7928460   0.4037610   0.0000000
 AtZNuc=   6.0000000   6.0000000   7.0000000   1.0000000   1.0000000   1.0000000   1.0000000   1.0000000   7.0000000   6.0000000

  Atom        21          22          23          24          25          26          27          28          29          30
 IAtWgt=          12          14           1           1          14          12          14           1          12          16
 AtmWgt=  12.0000000  14.0030740   1.0078250   1.0078250  14.0030740  12.0000000  14.0030740   1.0078250  12.0000000  15.9949146
 NucSpn=           0           2           1           1           2           0           2           1           0           0
 AtZEff=  -0.0000000  -0.0000000  -0.0000000  -0.0000000  -0.0000000  -0.0000000  -0.0000000  -0.0000000  -0.0000000  -0.0000000
 NQMom=    0.0000000   2.0440000   0.0000000   0.0000000   2.0440000   0.0000000   2.0440000   0.0000000   0.0000000   0.0000000
 NMagM=    0.0000000   0.4037610   2.7928460   2.7928460   0.4037610   0.0000000   0.4037610   2.7928460   0.0000000   0.0000000
 AtZNuc=   6.0000000   7.0000000   1.0000000   1.0000000   7.0000000   6.0000000   7.0000000   1.0000000   6.0000000   8.0000000

  Atom        31          32          33          34          35          36          37          38          39          40
 IAtWgt=          12          14          12           1           1           1           1           1           1           1
 AtmWgt=  12.0000000  14.0030740  12.0000000   1.0078250   1.0078250   1.0078250   1.0078250   1.0078250   1.0078250   1.0078250
 NucSpn=           0           2           0           1           1           1           1           1           1           1
 AtZEff=  -0.0000000  -0.0000000  -0.0000000  -0.0000000  -0.0000000  -0.0000000  -0.0000000  -0.0000000  -0.0000000  -0.0000000
 NQMom=    0.0000000   2.0440000   0.0000000   0.0000000   0.0000000   0.0000000   0.0000000   0.0000000   0.0000000   0.0000000
 NMagM=    0.0000000   0.4037610   0.0000000   2.7928460   2.7928460   2.7928460   2.7928460   2.7928460   2.7928460   2.7928460
 AtZNuc=   6.0000000   7.0000000   6.0000000   1.0000000   1.0000000   1.0000000   1.0000000   1.0000000   1.0000000   1.0000000

  Atom        41          42          43          44          45          46          47          48          49          50
 IAtWgt=           1          12          16          12           1          14          16          12           1          12
 AtmWgt=   1.0078250  12.0000000  15.9949146  12.0000000   1.0078250  14.0030740  15.9949146  12.0000000   1.0078250  12.0000000
 NucSpn=           1           0           0           0           1           2           0           0           1           0
 AtZEff=  -0.0000000  -0.0000000  -0.0000000  -0.0000000  -0.0000000  -0.0000000  -0.0000000  -0.0000000  -0.0000000  -0.0000000
 NQMom=    0.0000000   0.0000000   0.0000000   0.0000000   0.0000000   2.0440000   0.0000000   0.0000000   0.0000000   0.0000000
 NMagM=    2.7928460   0.0000000   0.0000000   0.0000000   2.7928460   0.4037610   0.0000000   0.0000000   2.7928460   0.0000000
 AtZNuc=   1.0000000   6.0000000   8.0000000   6.0000000   1.0000000   7.0000000   8.0000000   6.0000000   1.0000000   6.0000000

  Atom        51          52          53          54          55          56          57          58          59          60
 IAtWgt=          12          14           1           1           1           1           1          14          12          12
 AtmWgt=  12.0000000  14.0030740   1.0078250   1.0078250   1.0078250   1.0078250   1.0078250  14.0030740  12.0000000  12.0000000
 NucSpn=           0           2           1           1           1           1           1           2           0           0
 AtZEff=  -0.0000000  -0.0000000  -0.0000000  -0.0000000  -0.0000000  -0.0000000  -0.0000000  -0.0000000  -0.0000000  -0.0000000
 NQMom=    0.0000000   2.0440000   0.0000000   0.0000000   0.0000000   0.0000000   0.0000000   2.0440000   0.0000000   0.0000000
 NMagM=    0.0000000   0.4037610   2.7928460   2.7928460   2.7928460   2.7928460   2.7928460   0.4037610   0.0000000   0.0000000
 AtZNuc=   6.0000000   7.0000000   1.0000000   1.0000000   1.0000000   1.0000000   1.0000000   7.0000000   6.0000000   6.0000000

  Atom        61          62          63          64          65          66          67          68          69          70
 IAtWgt=          14           1          12          14           1          12          14          12          12          14
 AtmWgt=  14.0030740   1.0078250  12.0000000  14.0030740   1.0078250  12.0000000  14.0030740  12.0000000  12.0000000  14.0030740
 NucSpn=           2           1           0           2           1           0           2           0           0           2
 AtZEff=  -0.0000000  -0.0000000  -0.0000000  -0.0000000  -0.0000000  -0.0000000  -0.0000000  -0.0000000  -0.0000000  -0.0000000
 NQMom=    2.0440000   0.0000000   0.0000000   2.0440000   0.0000000   0.0000000   2.0440000   0.0000000   0.0000000   2.0440000
 NMagM=    0.4037610   2.7928460   0.0000000   0.4037610   2.7928460   0.0000000   0.4037610   0.0000000   0.0000000   0.4037610
 AtZNuc=   7.0000000   1.0000000   6.0000000   7.0000000   1.0000000   6.0000000   7.0000000   6.0000000   6.0000000   7.0000000
 Leave Link  101 at Tue Jan 23 14:10:59 2018, MaxMem=  4294967296 cpu:               7.8 elap:               0.3
 (Enter /share/apps/g16/l202.exe)
 Stoichiometry    C23H27N17O3
 Framework group  C1[X(C23H27N17O3)]
 Deg. of freedom   204
 Full point group                 C1      NOp   1
 Largest Abelian subgroup         C1      NOp   1
 Largest concise Abelian subgroup C1      NOp   1
                         Standard orientation:                         
 ---------------------------------------------------------------------
 Center     Atomic      Atomic             Coordinates (Angstroms)
 Number     Number       Type             X           Y           Z
 ---------------------------------------------------------------------
      1          7           0       -6.937558   -1.470606    0.268215
      2          6           0       -8.312490   -0.946261    0.155729
      3          6           0       -4.766792   -1.641124    0.578079
      4          7           0       -5.213290   -2.913360    0.251273
      5          6           0       -6.503225   -2.759705    0.077676
      6          1           0       -7.192154   -3.560468   -0.192688
      7          7           0       -3.389377    0.181841    1.163286
      8          6           0       -4.497746    0.929153    1.137937
      9          1           0       -4.353584    1.982869    1.372822
     10          7           0       -5.751555    0.571946    0.867269
     11          6           0       -5.818229   -0.741235    0.592451
     12          6           0       -3.489697   -1.135743    0.882257
     13          7           0       -2.384430   -1.883373    0.907048
     14          1           0       -2.411747   -2.863115    0.705575
     15          1           0       -1.491911   -1.489874    1.127739
     16          1           0       -8.904895   -1.417457    0.809334
     17          1           0       -8.313460    0.033688    0.352766
     18          1           0       -8.654666   -1.098435   -0.771500
     19          7           0       -2.367876    2.625231   -1.744723
     20          6           0       -1.047471    2.319372   -1.518819
     21          6           0       -2.962909    3.972331   -1.635461
     22          7           0        2.167553    3.317238   -0.664623
     23          1           0        3.065247    2.893032   -0.548789
     24          1           0        2.107584    4.303001   -0.505258
     25          7           0       -0.079572    3.191078   -1.161946
     26          6           0        1.091902    2.597394   -1.017775
     27          7           0        1.301590    1.253019   -1.208072
     28          1           0        2.231310    0.885572   -1.075549
     29          6           0        0.320443    0.337443   -1.575394
     30          8           0        0.614899   -0.855345   -1.721304
     31          6           0       -0.943511    0.960445   -1.734006
     32          7           0       -2.173899    0.423956   -2.087895
     33          6           0       -2.986240    1.445839   -2.081359
     34          1           0       -4.050175    1.394839   -2.315301
     35          1           0       -3.683526    3.965071   -0.943028
     36          1           0       -2.255326    4.626532   -1.371616
     37          1           0       -3.350622    4.239774   -2.516911
     38          1           0        6.929517   -0.422718    0.362510
     39          1           0        7.241909   -0.402356   -1.371459
     40          1           0        6.048457    0.696101   -0.678327
     41          1           0        4.997504   -4.634917   -0.930263
     42          6           0        4.756065   -3.572384   -0.961284
     43          8           0        2.447573   -3.921047   -1.381277
     44          6           0        3.404231   -3.168214   -1.200088
     45          1           0        2.265380   -1.477949   -1.385411
     46          7           0        3.207780   -1.802096   -1.219435
     47          8           0        3.885098    0.360468   -1.072015
     48          6           0        4.156144   -0.826955   -1.037133
     49          1           0        6.745809   -2.899698   -0.594914
     50          6           0        5.703154   -2.644657   -0.779762
     51          6           0        6.482819   -0.290309   -0.611654
     52          7           0        5.435550   -1.295689   -0.812135
     53          1           0        3.348459    3.831552    3.154128
     54          1           0        2.236572    3.885716    1.961290
     55          1           0        3.826473    3.850340    1.593822
     56          1           0        1.054629   -3.032199    1.513150
     57          1           0        2.650518   -2.684882    2.005692
     58          7           0        1.748726   -2.346949    1.734052
     59          6           0        1.484551   -1.040337    1.669592
     60          6           0        2.002266    1.274529    1.856932
     61          7           0        0.782226    1.699479    1.489034
     62          1           0       -1.027979    0.920859    0.925534
     63          6           0       -0.014875    0.664299    1.232238
     64          7           0        0.247845   -0.645070    1.296221
     65          1           0        5.084904    1.508411    2.802858
     66          6           0        4.096860    1.163823    2.496300
     67          7           0        3.751023   -0.094464    2.374758
     68          6           0        2.425248   -0.038431    1.969895
     69          6           0        3.127913    3.521362    2.229394
     70          7           0        3.087373    2.046431    2.198541
 ---------------------------------------------------------------------
 Rotational constants (GHZ):           0.1393925           0.0519361           0.0458834
 Leave Link  202 at Tue Jan 23 14:10:59 2018, MaxMem=  4294967296 cpu:               0.4 elap:               0.0
 (Enter /share/apps/g16/l301.exe)
 Standard basis: CC-pVDZ (5D, 7F)
 Ernie: Thresh=  0.10000D-02 Tol=  0.10000D-05 Strict=F.
 Ernie:  86 primitive shells out of 1081 were deleted.
 There are   780 symmetry adapted cartesian basis functions of A   symmetry.
 There are   737 symmetry adapted basis functions of A   symmetry.
   737 basis functions,  1608 primitive gaussians,   780 cartesian basis functions
   154 alpha electrons      154 beta electrons
       nuclear repulsion energy      5451.6841168283 Hartrees.
 IExCor= 4639 DFT=T Ex+Corr=wB97XD ExCW=0 ScaHFX=  1.000000
 ScaDFX=  1.000000  1.000000  1.000000  1.000000 ScalE2=  1.000000  1.000000
 IRadAn=      5 IRanWt=     -1 IRanGd=            0 ICorTp=0 IEmpDi=121
 HFx  wShort=  0.000000 wLong=  0.200000 cFull=  0.222036 cShort=  0.000000 cLong=  0.777964
 DFx  wShort=  0.000000 wLong=  0.200000 cFull=  0.000000 cShort=  0.000000 cLong=  1.000000
 NAtoms=   70 NActive=   70 NUniq=   70 SFac= 1.00D+00 NAtFMM=   60 NAOKFM=T Big=T
 Integral buffers will be    131072 words long.
 Raffenetti 2 integral format.
 Two-electron integral symmetry is turned on.
 R6Disp:  Grimme-D2 Dispersion energy=       -0.0694280101 Hartrees.
 Nuclear repulsion after empirical dispersion term =     5451.6146888182 Hartrees.
 Leave Link  301 at Tue Jan 23 14:10:59 2018, MaxMem=  4294967296 cpu:               3.0 elap:               0.1
 (Enter /share/apps/g16/l302.exe)
 NPDir=0 NMtPBC=     1 NCelOv=     1 NCel=       1 NClECP=     1 NCelD=      1
         NCelK=      1 NCelE2=     1 NClLst=     1 CellRange=     0.0.
 One-electron integrals computed using PRISM.
 One-electron integral symmetry used in STVInt
 NBasis=   737 RedAO= T EigKep=  7.05D-04  NBF=   737
 NBsUse=   737 1.00D-06 EigRej= -1.00D+00 NBFU=   737
 Precomputing XC quadrature grid using
 IXCGrd= 4 IRadAn=           5 IRanWt=          -1 IRanGd=           0 AccXCQ= 0.00D+00.
 Generated NRdTot=       0 NPtTot=           0 NUsed=           0 NTot=          32
 NSgBfM=   763   763   763   763   763 MxSgAt=    70 MxSgA2=    70.
 Leave Link  302 at Tue Jan 23 14:11:08 2018, MaxMem=  4294967296 cpu:             284.3 elap:               9.2
 (Enter /share/apps/g16/l303.exe)
 DipDrv:  MaxL=1.
 Leave Link  303 at Tue Jan 23 14:11:08 2018, MaxMem=  4294967296 cpu:              12.4 elap:               0.4
 (Enter /share/apps/g16/l401.exe)
 ExpMin= 1.22D-01 ExpMax= 1.17D+04 ExpMxC= 4.01D+02 IAcc=3 IRadAn=         5 AccDes= 0.00D+00
 Harris functional with IExCor= 4639 and IRadAn=       5 diagonalized for initial guess.
 HarFok:  IExCor= 4639 AccDes= 0.00D+00 IRadAn=         5 IDoV= 1 UseB2=F ITyADJ=14
 ICtDFT=  3500011 ScaDFX=  1.000000  1.000000  1.000000  1.000000
 FoFCou: FMM=F IPFlag=           0 FMFlag=      100000 FMFlg1=        2001
         NFxFlg=           0 DoJE=T BraDBF=F KetDBF=T FulRan=T
         wScrn=  0.000000 ICntrl=       500 IOpCl=  0 I1Cent=   200000004 NGrid=           0
         NMat0=    1 NMatS0=      1 NMatT0=    0 NMatD0=    1 NMtDS0=    0 NMtDT0=    0
 Petite list used in FoFCou.
 Harris En= -1963.87347755183    
 JPrj=0 DoOrth=F DoCkMO=F.
 Leave Link  401 at Tue Jan 23 14:11:21 2018, MaxMem=  4294967296 cpu:             394.3 elap:              12.4
 (Enter /share/apps/g16/l502.exe)
 Integral symmetry usage will be decided dynamically.
 Closed shell SCF:
 Using DIIS extrapolation, IDIIS=  1040.
 NGot=  4294967296 LenX=  4293717438 LenY=  4293108258
 Requested convergence on RMS density matrix=1.00D-08 within  20 cycles.
 Requested convergence on MAX density matrix=1.00D-06.
 Requested convergence on             energy=1.00D-06.
 No special actions if energy rises.
 Fock matrices will be formed incrementally for  20 cycles.
 Integral accuracy reduced to 1.0D-05 until final iterations.

 Cycle   1  Pass 0  IDiag  1:
 FoFJK:  IHMeth= 1 ICntrl=       0 DoSepK=T KAlg= 0 I1Cent=           0 FoldK=F
 IRaf=         1 NMat=       1 IRICut=       1 DoRegI=T DoRafI=F ISym2E= 0 IDoP0=0 IntGTp=1.
 FoFCou: FMM=T IPFlag=           0 FMFlag=      100000 FMFlg1=        2001
         NFxFlg=           0 DoJE=T BraDBF=F KetDBF=F FulRan=T
         wScrn=  0.000000 ICntrl=       500 IOpCl=  0 I1Cent=           0 NGrid=           0
         NMat0=    1 NMatS0=      1 NMatT0=    0 NMatD0=    1 NMtDS0=    0 NMtDT0=    0
 Symmetry not used in FoFCou.
 FMM levels:  10  Number of levels for PrismC:   9
 E= -2048.30412992767    
 DIIS: error= 2.47D-02 at cycle   1 NSaved=   1.
 NSaved= 1 IEnMin= 1 EnMin= -2048.30412992767     IErMin= 1 ErrMin= 2.47D-02
 ErrMax= 2.47D-02  0.00D+00 EMaxC= 1.00D-01 BMatC= 8.32D-01 BMatP= 8.32D-01
 IDIUse=3 WtCom= 7.53D-01 WtEn= 2.47D-01
 Coeff-Com:  0.100D+01
 Coeff-En:   0.100D+01
 Coeff:      0.100D+01
 Gap=     0.253 Goal=   None    Shift=    0.000
 GapD=    0.253 DampG=1.000 DampE=0.500 DampFc=0.5000 IDamp=-1.
 Damping current iteration by 5.00D-01
 RMSDP=1.57D-03 MaxDP=1.30D-01              OVMax= 2.03D-01

 Cycle   2  Pass 0  IDiag  1:
 RMSU=  7.85D-04    CP:  9.98D-01
 E= -2048.50170148845     Delta-E=       -0.197571560779 Rises=F Damp=T
 DIIS: error= 1.24D-02 at cycle   2 NSaved=   2.
 NSaved= 2 IEnMin= 2 EnMin= -2048.50170148845     IErMin= 2 ErrMin= 1.24D-02
 ErrMax= 1.24D-02  0.00D+00 EMaxC= 1.00D-01 BMatC= 1.45D-01 BMatP= 8.32D-01
 IDIUse=3 WtCom= 8.76D-01 WtEn= 1.24D-01
 Coeff-Com: -0.198D+00 0.120D+01
 Coeff-En:   0.000D+00 0.100D+01
 Coeff:     -0.173D+00 0.117D+01
 Gap=     0.361 Goal=   None    Shift=    0.000
 RMSDP=5.87D-04 MaxDP=3.37D-02 DE=-1.98D-01 OVMax= 1.48D-01

 Cycle   3  Pass 0  IDiag  1:
 RMSU=  5.76D-04    CP:  9.94D-01  1.14D+00
 E= -2048.68224270384     Delta-E=       -0.180541215386 Rises=F Damp=F
 DIIS: error= 6.38D-03 at cycle   3 NSaved=   3.
 NSaved= 3 IEnMin= 3 EnMin= -2048.68224270384     IErMin= 3 ErrMin= 6.38D-03
 ErrMax= 6.38D-03  0.00D+00 EMaxC= 1.00D-01 BMatC= 6.18D-02 BMatP= 1.45D-01
 IDIUse=3 WtCom= 9.36D-01 WtEn= 6.38D-02
 Coeff-Com: -0.231D+00 0.546D+00 0.685D+00
 Coeff-En:   0.000D+00 0.000D+00 0.100D+01
 Coeff:     -0.216D+00 0.511D+00 0.705D+00
 Gap=     0.280 Goal=   None    Shift=    0.000
 RMSDP=3.48D-04 MaxDP=3.29D-02 DE=-1.81D-01 OVMax= 6.49D-02

 Cycle   4  Pass 0  IDiag  1:
 RMSU=  2.00D-04    CP:  9.94D-01  1.41D+00  6.82D-01
 E= -2048.72953885856     Delta-E=       -0.047296154722 Rises=F Damp=F
 DIIS: error= 2.43D-03 at cycle   4 NSaved=   4.
 NSaved= 4 IEnMin= 4 EnMin= -2048.72953885856     IErMin= 4 ErrMin= 2.43D-03
 ErrMax= 2.43D-03  0.00D+00 EMaxC= 1.00D-01 BMatC= 8.41D-03 BMatP= 6.18D-02
 IDIUse=3 WtCom= 9.76D-01 WtEn= 2.43D-02
 Coeff-Com: -0.972D-01 0.188D+00 0.376D+00 0.533D+00
 Coeff-En:   0.000D+00 0.000D+00 0.480D-01 0.952D+00
 Coeff:     -0.948D-01 0.184D+00 0.368D+00 0.543D+00
 Gap=     0.284 Goal=   None    Shift=    0.000
 RMSDP=1.24D-04 MaxDP=1.17D-02 DE=-4.73D-02 OVMax= 1.27D-02

 Cycle   5  Pass 0  IDiag  1:
 RMSU=  6.13D-05    CP:  9.94D-01  1.39D+00  8.09D-01  6.19D-01
 E= -2048.73648282610     Delta-E=       -0.006943967538 Rises=F Damp=F
 DIIS: error= 6.03D-04 at cycle   5 NSaved=   5.
 NSaved= 5 IEnMin= 5 EnMin= -2048.73648282610     IErMin= 5 ErrMin= 6.03D-04
 ErrMax= 6.03D-04  0.00D+00 EMaxC= 1.00D-01 BMatC= 2.93D-04 BMatP= 8.41D-03
 IDIUse=3 WtCom= 9.94D-01 WtEn= 6.03D-03
 Coeff-Com: -0.256D-01 0.441D-01 0.121D+00 0.242D+00 0.619D+00
 Coeff-En:   0.000D+00 0.000D+00 0.000D+00 0.000D+00 0.100D+01
 Coeff:     -0.254D-01 0.438D-01 0.120D+00 0.240D+00 0.621D+00
 Gap=     0.284 Goal=   None    Shift=    0.000
 RMSDP=2.63D-05 MaxDP=1.92D-03 DE=-6.94D-03 OVMax= 3.24D-03

 Failed to achieve initial convergence to 1.0D-08 in  6 cycles.
 Switch to full accuracy anyway.
 Cycle   6  Pass 1  IDiag  1:
 E= -2048.73671534600     Delta-E=       -0.000232519904 Rises=F Damp=F
 DIIS: error= 2.38D-04 at cycle   1 NSaved=   1.
 NSaved= 1 IEnMin= 1 EnMin= -2048.73671534600     IErMin= 1 ErrMin= 2.38D-04
 ErrMax= 2.38D-04  0.00D+00 EMaxC= 1.00D-01 BMatC= 7.25D-05 BMatP= 7.25D-05
 IDIUse=3 WtCom= 9.98D-01 WtEn= 2.38D-03
 Coeff-Com:  0.100D+01
 Coeff-En:   0.100D+01
 Coeff:      0.100D+01
 Gap=     0.284 Goal=   None    Shift=    0.000
 RMSDP=2.63D-05 MaxDP=1.92D-03 DE=-2.33D-04 OVMax= 2.60D-03

 Cycle   7  Pass 1  IDiag  1:
 RMSU=  1.09D-04    CP:  1.00D+00
 E= -2048.73676901044     Delta-E=       -0.000053664438 Rises=F Damp=F
 DIIS: error= 2.51D-04 at cycle   2 NSaved=   2.
 NSaved= 2 IEnMin= 2 EnMin= -2048.73676901044     IErMin= 1 ErrMin= 2.38D-04
 ErrMax= 2.51D-04  0.00D+00 EMaxC= 1.00D-01 BMatC= 4.20D-05 BMatP= 7.25D-05
 IDIUse=3 WtCom= 9.97D-01 WtEn= 2.51D-03
 Coeff-Com:  0.408D+00 0.592D+00
 Coeff-En:   0.000D+00 0.100D+01
 Coeff:      0.407D+00 0.593D+00
 Gap=     0.285 Goal=   None    Shift=    0.000
 RMSDP=1.13D-05 MaxDP=1.08D-03 DE=-5.37D-05 OVMax= 1.48D-03

 Cycle   8  Pass 1  IDiag  1:
 RMSU=  1.10D-05    CP:  1.00D+00  1.02D+00
 E= -2048.73679931629     Delta-E=       -0.000030305854 Rises=F Damp=F
 DIIS: error= 9.98D-05 at cycle   3 NSaved=   3.
 NSaved= 3 IEnMin= 3 EnMin= -2048.73679931629     IErMin= 3 ErrMin= 9.98D-05
 ErrMax= 9.98D-05  0.00D+00 EMaxC= 1.00D-01 BMatC= 9.89D-06 BMatP= 4.20D-05
 IDIUse=1 WtCom= 1.00D+00 WtEn= 0.00D+00
 Coeff-Com: -0.201D-01 0.313D+00 0.707D+00
 Coeff:     -0.201D-01 0.313D+00 0.707D+00
 Gap=     0.285 Goal=   None    Shift=    0.000
 RMSDP=5.58D-06 MaxDP=4.52D-04 DE=-3.03D-05 OVMax= 5.41D-04

 Cycle   9  Pass 1  IDiag  1:
 RMSU=  3.79D-06    CP:  1.00D+00  1.05D+00  7.59D-01
 E= -2048.73680854453     Delta-E=       -0.000009228236 Rises=F Damp=F
 DIIS: error= 3.38D-05 at cycle   4 NSaved=   4.
 NSaved= 4 IEnMin= 4 EnMin= -2048.73680854453     IErMin= 4 ErrMin= 3.38D-05
 ErrMax= 3.38D-05  0.00D+00 EMaxC= 1.00D-01 BMatC= 4.87D-07 BMatP= 9.89D-06
 IDIUse=1 WtCom= 1.00D+00 WtEn= 0.00D+00
 Coeff-Com: -0.312D-01 0.854D-01 0.261D+00 0.685D+00
 Coeff:     -0.312D-01 0.854D-01 0.261D+00 0.685D+00
 Gap=     0.284 Goal=   None    Shift=    0.000
 RMSDP=1.41D-06 MaxDP=1.30D-04 DE=-9.23D-06 OVMax= 5.01D-04

 Cycle  10  Pass 1  IDiag  1:
 RMSU=  1.26D-06    CP:  1.00D+00  1.06D+00  7.93D-01  1.10D+00
 E= -2048.73680935545     Delta-E=       -0.000000810915 Rises=F Damp=F
 DIIS: error= 1.65D-05 at cycle   5 NSaved=   5.
 NSaved= 5 IEnMin= 5 EnMin= -2048.73680935545     IErMin= 5 ErrMin= 1.65D-05
 ErrMax= 1.65D-05  0.00D+00 EMaxC= 1.00D-01 BMatC= 1.14D-07 BMatP= 4.87D-07
 IDIUse=1 WtCom= 1.00D+00 WtEn= 0.00D+00
 Coeff-Com: -0.269D-02-0.574D-01-0.124D+00 0.200D+00 0.984D+00
 Coeff:     -0.269D-02-0.574D-01-0.124D+00 0.200D+00 0.984D+00
 Gap=     0.285 Goal=   None    Shift=    0.000
 RMSDP=1.19D-06 MaxDP=7.63D-05 DE=-8.11D-07 OVMax= 2.51D-04

 Cycle  11  Pass 1  IDiag  1:
 RMSU=  4.73D-07    CP:  1.00D+00  1.06D+00  8.02D-01  1.38D+00  1.17D+00
 E= -2048.73680960263     Delta-E=       -0.000000247182 Rises=F Damp=F
 DIIS: error= 8.30D-06 at cycle   6 NSaved=   6.
 NSaved= 6 IEnMin= 6 EnMin= -2048.73680960263     IErMin= 6 ErrMin= 8.30D-06
 ErrMax= 8.30D-06  0.00D+00 EMaxC= 1.00D-01 BMatC= 2.63D-08 BMatP= 1.14D-07
 IDIUse=1 WtCom= 1.00D+00 WtEn= 0.00D+00
 Coeff-Com:  0.463D-02-0.447D-01-0.112D+00 0.369D-03 0.520D+00 0.632D+00
 Coeff:      0.463D-02-0.447D-01-0.112D+00 0.369D-03 0.520D+00 0.632D+00
 Gap=     0.285 Goal=   None    Shift=    0.000
 RMSDP=3.42D-07 MaxDP=3.53D-05 DE=-2.47D-07 OVMax= 1.23D-04

 Cycle  12  Pass 1  IDiag  1:
 RMSU=  1.72D-07    CP:  1.00D+00  1.06D+00  8.04D-01  1.45D+00  1.29D+00
                    CP:  9.23D-01
 E= -2048.73680964019     Delta-E=       -0.000000037564 Rises=F Damp=F
 DIIS: error= 1.05D-06 at cycle   7 NSaved=   7.
 NSaved= 7 IEnMin= 7 EnMin= -2048.73680964019     IErMin= 7 ErrMin= 1.05D-06
 ErrMax= 1.05D-06  0.00D+00 EMaxC= 1.00D-01 BMatC= 6.52D-10 BMatP= 2.63D-08
 IDIUse=1 WtCom= 1.00D+00 WtEn= 0.00D+00
 Coeff-Com:  0.868D-03-0.509D-02-0.143D-01-0.757D-02 0.308D-01 0.108D+00
 Coeff-Com:  0.887D+00
 Coeff:      0.868D-03-0.509D-02-0.143D-01-0.757D-02 0.308D-01 0.108D+00
 Coeff:      0.887D+00
 Gap=     0.285 Goal=   None    Shift=    0.000
 RMSDP=8.29D-08 MaxDP=5.31D-06 DE=-3.76D-08 OVMax= 2.37D-05

 Cycle  13  Pass 1  IDiag  1:
 RMSU=  4.72D-08    CP:  1.00D+00  1.06D+00  8.03D-01  1.45D+00  1.31D+00
                    CP:  1.01D+00  1.16D+00
 E= -2048.73680964185     Delta-E=       -0.000000001663 Rises=F Damp=F
 DIIS: error= 6.09D-07 at cycle   8 NSaved=   8.
 NSaved= 8 IEnMin= 8 EnMin= -2048.73680964185     IErMin= 8 ErrMin= 6.09D-07
 ErrMax= 6.09D-07  0.00D+00 EMaxC= 1.00D-01 BMatC= 2.57D-10 BMatP= 6.52D-10
 IDIUse=1 WtCom= 1.00D+00 WtEn= 0.00D+00
 Coeff-Com: -0.724D-03 0.871D-02 0.209D-01-0.168D-02-0.113D+00-0.999D-01
 Coeff-Com:  0.424D+00 0.761D+00
 Coeff:     -0.724D-03 0.871D-02 0.209D-01-0.168D-02-0.113D+00-0.999D-01
 Coeff:      0.424D+00 0.761D+00
 Gap=     0.285 Goal=   None    Shift=    0.000
 RMSDP=4.06D-08 MaxDP=2.35D-06 DE=-1.66D-09 OVMax= 1.01D-05

 Cycle  14  Pass 1  IDiag  1:
 RMSU=  2.42D-08    CP:  1.00D+00  1.06D+00  8.03D-01  1.46D+00  1.32D+00
                    CP:  1.05D+00  1.30D+00  1.10D+00
 E= -2048.73680964224     Delta-E=       -0.000000000386 Rises=F Damp=F
 DIIS: error= 1.81D-07 at cycle   9 NSaved=   9.
 NSaved= 9 IEnMin= 9 EnMin= -2048.73680964224     IErMin= 9 ErrMin= 1.81D-07
 ErrMax= 1.81D-07  0.00D+00 EMaxC= 1.00D-01 BMatC= 2.08D-11 BMatP= 2.57D-10
 IDIUse=1 WtCom= 1.00D+00 WtEn= 0.00D+00
 Coeff-Com: -0.363D-03 0.383D-02 0.942D-02 0.201D-03-0.458D-01-0.490D-01
 Coeff-Com:  0.730D-01 0.271D+00 0.738D+00
 Coeff:     -0.363D-03 0.383D-02 0.942D-02 0.201D-03-0.458D-01-0.490D-01
 Coeff:      0.730D-01 0.271D+00 0.738D+00
 Gap=     0.285 Goal=   None    Shift=    0.000
 RMSDP=1.19D-08 MaxDP=8.12D-07 DE=-3.86D-10 OVMax= 3.35D-06

 Cycle  15  Pass 1  IDiag  1:
 RMSU=  7.93D-09    CP:  1.00D+00  1.06D+00  8.03D-01  1.46D+00  1.32D+00
                    CP:  1.06D+00  1.33D+00  1.23D+00  1.12D+00
 E= -2048.73680964210     Delta-E=        0.000000000136 Rises=F Damp=F
 DIIS: error= 1.09D-07 at cycle  10 NSaved=  10.
 NSaved=10 IEnMin= 9 EnMin= -2048.73680964224     IErMin=10 ErrMin= 1.09D-07
 ErrMax= 1.09D-07  0.00D+00 EMaxC= 1.00D-01 BMatC= 4.82D-12 BMatP= 2.08D-11
 IDIUse=1 WtCom= 1.00D+00 WtEn= 0.00D+00
 Coeff-Com:  0.262D-04-0.526D-03-0.117D-02 0.159D-03 0.794D-02 0.400D-02
 Coeff-Com: -0.623D-01-0.737D-01 0.303D+00 0.822D+00
 Coeff:      0.262D-04-0.526D-03-0.117D-02 0.159D-03 0.794D-02 0.400D-02
 Coeff:     -0.623D-01-0.737D-01 0.303D+00 0.822D+00
 Gap=     0.285 Goal=   None    Shift=    0.000
 RMSDP=6.02D-09 MaxDP=3.50D-07 DE= 1.36D-10 OVMax= 1.29D-06

 SCF Done:  E(RwB97XD) =  -2048.73680964     A.U. after   15 cycles
            NFock= 15  Conv=0.60D-08     -V/T= 2.0054
 KE= 2.037771420920D+03 PE=-1.568413860070D+04 EE= 6.146015681322D+03
 Leave Link  502 at Tue Jan 23 14:23:04 2018, MaxMem=  4294967296 cpu:           21382.9 elap:             702.9
 (Enter /share/apps/g16/l601.exe)
 Copying SCF densities to generalized density rwf, IOpCl= 0 IROHF=0.

 **********************************************************************

            Population analysis using the SCF density.

 **********************************************************************

 Orbital symmetries:
       Occupied  (A) (A) (A) (A) (A) (A) (A) (A) (A) (A) (A) (A)
                 (A) (A) (A) (A) (A) (A) (A) (A) (A) (A) (A) (A)
                 (A) (A) (A) (A) (A) (A) (A) (A) (A) (A) (A) (A)
                 (A) (A) (A) (A) (A) (A) (A) (A) (A) (A) (A) (A)
                 (A) (A) (A) (A) (A) (A) (A) (A) (A) (A) (A) (A)
                 (A) (A) (A) (A) (A) (A) (A) (A) (A) (A) (A) (A)
                 (A) (A) (A) (A) (A) (A) (A) (A) (A) (A) (A) (A)
                 (A) (A) (A) (A) (A) (A) (A) (A) (A) (A) (A) (A)
                 (A) (A) (A) (A) (A) (A) (A) (A) (A) (A) (A) (A)
                 (A) (A) (A) (A) (A) (A) (A) (A) (A) (A) (A) (A)
                 (A) (A) (A) (A) (A) (A) (A) (A) (A) (A) (A) (A)
                 (A) (A) (A) (A) (A) (A) (A) (A) (A) (A) (A) (A)
                 (A) (A) (A) (A) (A) (A) (A) (A) (A) (A)
       Virtual   (A) (A) (A) (A) (A) (A) (A) (A) (A) (A) (A) (A)
                 (A) (A) (A) (A) (A) (A) (A) (A) (A) (A) (A) (A)
                 (A) (A) (A) (A) (A) (A) (A) (A) (A) (A) (A) (A)
                 (A) (A) (A) (A) (A) (A) (A) (A) (A) (A) (A) (A)
                 (A) (A) (A) (A) (A) (A) (A) (A) (A) (A) (A) (A)
                 (A) (A) (A) (A) (A) (A) (A) (A) (A) (A) (A) (A)
                 (A) (A) (A) (A) (A) (A) (A) (A) (A) (A) (A) (A)
                 (A) (A) (A) (A) (A) (A) (A) (A) (A) (A) (A) (A)
                 (A) (A) (A) (A) (A) (A) (A) (A) (A) (A) (A) (A)
                 (A) (A) (A) (A) (A) (A) (A) (A) (A) (A) (A) (A)
                 (A) (A) (A) (A) (A) (A) (A) (A) (A) (A) (A) (A)
                 (A) (A) (A) (A) (A) (A) (A) (A) (A) (A) (A) (A)
                 (A) (A) (A) (A) (A) (A) (A) (A) (A) (A) (A) (A)
                 (A) (A) (A) (A) (A) (A) (A) (A) (A) (A) (A) (A)
                 (A) (A) (A) (A) (A) (A) (A) (A) (A) (A) (A) (A)
                 (A) (A) (A) (A) (A) (A) (A) (A) (A) (A) (A) (A)
                 (A) (A) (A) (A) (A) (A) (A) (A) (A) (A) (A) (A)
                 (A) (A) (A) (A) (A) (A) (A) (A) (A) (A) (A) (A)
                 (A) (A) (A) (A) (A) (A) (A) (A) (A) (A) (A) (A)
                 (A) (A) (A) (A) (A) (A) (A) (A) (A) (A) (A) (A)
                 (A) (A) (A) (A) (A) (A) (A) (A) (A) (A) (A) (A)
                 (A) (A) (A) (A) (A) (A) (A) (A) (A) (A) (A) (A)
                 (A) (A) (A) (A) (A) (A) (A) (A) (A) (A) (A) (A)
                 (A) (A) (A) (A) (A) (A) (A) (A) (A) (A) (A) (A)
                 (A) (A) (A) (A) (A) (A) (A) (A) (A) (A) (A) (A)
                 (A) (A) (A) (A) (A) (A) (A) (A) (A) (A) (A) (A)
                 (A) (A) (A) (A) (A) (A) (A) (A) (A) (A) (A) (A)
                 (A) (A) (A) (A) (A) (A) (A) (A) (A) (A) (A) (A)
                 (A) (A) (A) (A) (A) (A) (A) (A) (A) (A) (A) (A)
                 (A) (A) (A) (A) (A) (A) (A) (A) (A) (A) (A) (A)
                 (A) (A) (A) (A) (A) (A) (A) (A) (A) (A) (A) (A)
                 (A) (A) (A) (A) (A) (A) (A) (A) (A) (A) (A) (A)
                 (A) (A) (A) (A) (A) (A) (A) (A) (A) (A) (A) (A)
                 (A) (A) (A) (A) (A) (A) (A) (A) (A) (A) (A) (A)
                 (A) (A) (A) (A) (A) (A) (A) (A) (A) (A) (A) (A)
                 (A) (A) (A) (A) (A) (A) (A) (A) (A) (A) (A) (A)
                 (A) (A) (A) (A) (A) (A) (A) (A) (A) (A) (A) (A)
                 (A) (A) (A) (A) (A) (A) (A) (A) (A) (A) (A) (A)
                 (A) (A) (A) (A) (A) (A) (A) (A) (A) (A) (A) (A)
                 (A) (A) (A) (A) (A) (A) (A) (A) (A) (A) (A) (A)
                 (A) (A) (A) (A) (A) (A) (A) (A) (A) (A) (A) (A)
                 (A) (A) (A) (A) (A) (A) (A) (A) (A) (A) (A) (A)
                 (A) (A) (A) (A) (A) (A) (A) (A) (A) (A) (A) (A)
                 (A) (A) (A) (A) (A) (A) (A) (A) (A) (A) (A) (A)
                 (A) (A) (A) (A) (A) (A) (A) (A) (A) (A) (A) (A)
                 (A) (A) (A) (A) (A) (A) (A) (A) (A) (A) (A) (A)
                 (A) (A) (A) (A) (A) (A) (A) (A) (A) (A) (A) (A)
                 (A) (A) (A) (A) (A) (A) (A) (A) (A) (A) (A) (A)
                 (A) (A) (A) (A) (A) (A) (A)
 The electronic state is 1-A.
 Alpha  occ. eigenvalues --  -19.25952 -19.22179 -19.20666 -14.52518 -14.51622
 Alpha  occ. eigenvalues --  -14.49091 -14.48791 -14.48005 -14.47124 -14.46853
 Alpha  occ. eigenvalues --  -14.46789 -14.44569 -14.42986 -14.42773 -14.42417
 Alpha  occ. eigenvalues --  -14.42091 -14.41763 -14.41246 -14.40795 -14.40444
 Alpha  occ. eigenvalues --  -10.45596 -10.41376 -10.40288 -10.38684 -10.38292
 Alpha  occ. eigenvalues --  -10.37924 -10.37166 -10.36034 -10.35699 -10.35391
 Alpha  occ. eigenvalues --  -10.34422 -10.34419 -10.34389 -10.33706 -10.33483
 Alpha  occ. eigenvalues --  -10.33424 -10.33269 -10.31595 -10.31216 -10.31209
 Alpha  occ. eigenvalues --  -10.30850 -10.28876 -10.28211  -1.19518  -1.14284
 Alpha  occ. eigenvalues --   -1.13314  -1.13183  -1.11682  -1.10630  -1.09411
 Alpha  occ. eigenvalues --   -1.08760  -1.07998  -1.05280  -1.03567  -1.02627
 Alpha  occ. eigenvalues --   -1.00718  -1.00322  -0.99862  -0.98583  -0.97270
 Alpha  occ. eigenvalues --   -0.96594  -0.95582  -0.92927  -0.91164  -0.86701
 Alpha  occ. eigenvalues --   -0.85184  -0.84255  -0.84188  -0.83769  -0.82611
 Alpha  occ. eigenvalues --   -0.82537  -0.78985  -0.75977  -0.74730  -0.73899
 Alpha  occ. eigenvalues --   -0.73643  -0.73480  -0.73203  -0.71376  -0.69387
 Alpha  occ. eigenvalues --   -0.67586  -0.66664  -0.66598  -0.65729  -0.64569
 Alpha  occ. eigenvalues --   -0.63868  -0.63289  -0.62937  -0.62794  -0.62038
 Alpha  occ. eigenvalues --   -0.60490  -0.59818  -0.59651  -0.59529  -0.59278
 Alpha  occ. eigenvalues --   -0.58622  -0.58570  -0.56862  -0.56751  -0.56661
 Alpha  occ. eigenvalues --   -0.56067  -0.55663  -0.55058  -0.54523  -0.54389
 Alpha  occ. eigenvalues --   -0.53743  -0.53491  -0.53038  -0.52870  -0.52586
 Alpha  occ. eigenvalues --   -0.52344  -0.52015  -0.51866  -0.51049  -0.50478
 Alpha  occ. eigenvalues --   -0.50227  -0.49546  -0.49425  -0.48946  -0.48770
 Alpha  occ. eigenvalues --   -0.48726  -0.48331  -0.47953  -0.47824  -0.47485
 Alpha  occ. eigenvalues --   -0.47270  -0.45523  -0.45348  -0.44150  -0.43092
 Alpha  occ. eigenvalues --   -0.41493  -0.39657  -0.39510  -0.37552  -0.37459
 Alpha  occ. eigenvalues --   -0.37297  -0.36663  -0.36485  -0.35876  -0.34676
 Alpha  occ. eigenvalues --   -0.33883  -0.33770  -0.33351  -0.33258  -0.32892
 Alpha  occ. eigenvalues --   -0.32720  -0.32407  -0.32086  -0.31888  -0.31245
 Alpha  occ. eigenvalues --   -0.30656  -0.28774  -0.26082  -0.25500
 Alpha virt. eigenvalues --    0.02951   0.04881   0.07584   0.07752   0.08427
 Alpha virt. eigenvalues --    0.09439   0.09518   0.10653   0.11369   0.12110
 Alpha virt. eigenvalues --    0.12741   0.13749   0.14576   0.14729   0.14773
 Alpha virt. eigenvalues --    0.15969   0.16377   0.16677   0.16803   0.18128
 Alpha virt. eigenvalues --    0.18748   0.19343   0.19574   0.20126   0.20395
 Alpha virt. eigenvalues --    0.20744   0.20940   0.21173   0.21460   0.22241
 Alpha virt. eigenvalues --    0.22809   0.23359   0.23392   0.23674   0.23803
 Alpha virt. eigenvalues --    0.23811   0.24064   0.24219   0.25206   0.25431
 Alpha virt. eigenvalues --    0.26019   0.26629   0.27430   0.27834   0.28016
 Alpha virt. eigenvalues --    0.28953   0.29442   0.29703   0.30748   0.30907
 Alpha virt. eigenvalues --    0.31219   0.31814   0.32673   0.33290   0.33714
 Alpha virt. eigenvalues --    0.33896   0.34797   0.35013   0.35727   0.36657
 Alpha virt. eigenvalues --    0.36929   0.37687   0.38363   0.39602   0.39989
 Alpha virt. eigenvalues --    0.40068   0.40650   0.41160   0.41495   0.41601
 Alpha virt. eigenvalues --    0.42178   0.42763   0.43589   0.43873   0.44864
 Alpha virt. eigenvalues --    0.45240   0.45292   0.45916   0.46165   0.47106
 Alpha virt. eigenvalues --    0.47566   0.47986   0.48788   0.49287   0.49421
 Alpha virt. eigenvalues --    0.49931   0.50086   0.50480   0.51027   0.51456
 Alpha virt. eigenvalues --    0.51696   0.51825   0.52125   0.52552   0.53500
 Alpha virt. eigenvalues --    0.53838   0.54382   0.54436   0.55292   0.55430
 Alpha virt. eigenvalues --    0.55755   0.56240   0.56901   0.57153   0.57703
 Alpha virt. eigenvalues --    0.57850   0.58627   0.58997   0.59098   0.59796
 Alpha virt. eigenvalues --    0.59929   0.60178   0.60421   0.60997   0.61566
 Alpha virt. eigenvalues --    0.61962   0.61977   0.62591   0.62678   0.63562
 Alpha virt. eigenvalues --    0.63837   0.64263   0.64563   0.65043   0.65100
 Alpha virt. eigenvalues --    0.65621   0.66101   0.66334   0.66738   0.67451
 Alpha virt. eigenvalues --    0.67547   0.68020   0.68457   0.68852   0.68960
 Alpha virt. eigenvalues --    0.69460   0.69853   0.70395   0.70891   0.71291
 Alpha virt. eigenvalues --    0.71514   0.72324   0.72622   0.72995   0.73385
 Alpha virt. eigenvalues --    0.73907   0.74219   0.74599   0.75100   0.75465
 Alpha virt. eigenvalues --    0.75651   0.76053   0.76169   0.76645   0.76776
 Alpha virt. eigenvalues --    0.77372   0.77781   0.77993   0.78165   0.78947
 Alpha virt. eigenvalues --    0.79283   0.79743   0.79953   0.80198   0.80587
 Alpha virt. eigenvalues --    0.81165   0.82020   0.82190   0.82830   0.83256
 Alpha virt. eigenvalues --    0.83482   0.83685   0.84230   0.84615   0.85077
 Alpha virt. eigenvalues --    0.85743   0.85797   0.86357   0.87193   0.87952
 Alpha virt. eigenvalues --    0.88124   0.88829   0.88889   0.89293   0.89787
 Alpha virt. eigenvalues --    0.90285   0.90959   0.91250   0.91601   0.91752
 Alpha virt. eigenvalues --    0.92617   0.93085   0.93593   0.93908   0.94478
 Alpha virt. eigenvalues --    0.94594   0.94942   0.95688   0.96286   0.96770
 Alpha virt. eigenvalues --    0.96807   0.97064   0.97787   0.98280   0.98541
 Alpha virt. eigenvalues --    0.99020   0.99783   1.00448   1.00744   1.01672
 Alpha virt. eigenvalues --    1.01920   1.02205   1.02834   1.03110   1.03507
 Alpha virt. eigenvalues --    1.03545   1.04215   1.04951   1.05041   1.05525
 Alpha virt. eigenvalues --    1.06119   1.06940   1.07099   1.07688   1.08339
 Alpha virt. eigenvalues --    1.08663   1.09409   1.09853   1.10093   1.10700
 Alpha virt. eigenvalues --    1.11696   1.11782   1.12636   1.13001   1.13746
 Alpha virt. eigenvalues --    1.13813   1.14464   1.15105   1.15314   1.15790
 Alpha virt. eigenvalues --    1.15908   1.16461   1.17090   1.17342   1.17700
 Alpha virt. eigenvalues --    1.18550   1.18671   1.19391   1.19559   1.20157
 Alpha virt. eigenvalues --    1.20455   1.20952   1.20999   1.21530   1.21612
 Alpha virt. eigenvalues --    1.22323   1.22537   1.22766   1.22835   1.23223
 Alpha virt. eigenvalues --    1.23811   1.24145   1.24380   1.25109   1.25487
 Alpha virt. eigenvalues --    1.26031   1.26205   1.27392   1.28011   1.28366
 Alpha virt. eigenvalues --    1.28739   1.29320   1.30116   1.30601   1.31259
 Alpha virt. eigenvalues --    1.31853   1.32256   1.33351   1.34213   1.34731
 Alpha virt. eigenvalues --    1.34933   1.35492   1.36114   1.36609   1.37466
 Alpha virt. eigenvalues --    1.38175   1.38750   1.38834   1.39696   1.40633
 Alpha virt. eigenvalues --    1.41867   1.42706   1.43607   1.44222   1.44576
 Alpha virt. eigenvalues --    1.45021   1.46965   1.47456   1.47915   1.48366
 Alpha virt. eigenvalues --    1.48860   1.48938   1.49271   1.49768   1.50851
 Alpha virt. eigenvalues --    1.51382   1.51654   1.52570   1.53244   1.53758
 Alpha virt. eigenvalues --    1.55073   1.55863   1.56195   1.56632   1.57578
 Alpha virt. eigenvalues --    1.58588   1.59236   1.59385   1.60288   1.61039
 Alpha virt. eigenvalues --    1.61703   1.62155   1.62749   1.63276   1.63849
 Alpha virt. eigenvalues --    1.64909   1.65616   1.66304   1.66454   1.66983
 Alpha virt. eigenvalues --    1.67432   1.67900   1.68490   1.68863   1.69288
 Alpha virt. eigenvalues --    1.69605   1.69905   1.70424   1.70754   1.70996
 Alpha virt. eigenvalues --    1.71862   1.72327   1.72679   1.73299   1.73560
 Alpha virt. eigenvalues --    1.74170   1.74636   1.74940   1.75151   1.75339
 Alpha virt. eigenvalues --    1.75763   1.76016   1.76175   1.76825   1.77190
 Alpha virt. eigenvalues --    1.77381   1.78212   1.78856   1.79053   1.79580
 Alpha virt. eigenvalues --    1.79868   1.79923   1.80060   1.80116   1.80656
 Alpha virt. eigenvalues --    1.81104   1.81567   1.81903   1.82227   1.82586
 Alpha virt. eigenvalues --    1.82842   1.83082   1.83581   1.83962   1.84350
 Alpha virt. eigenvalues --    1.84872   1.85939   1.86612   1.86819   1.87649
 Alpha virt. eigenvalues --    1.87738   1.87866   1.88485   1.88939   1.89175
 Alpha virt. eigenvalues --    1.89376   1.89562   1.90578   1.90813   1.91511
 Alpha virt. eigenvalues --    1.92243   1.92942   1.93098   1.93550   1.93815
 Alpha virt. eigenvalues --    1.94314   1.95199   1.95721   1.96432   1.97257
 Alpha virt. eigenvalues --    1.98601   1.99474   1.99880   2.00290   2.00990
 Alpha virt. eigenvalues --    2.01601   2.01826   2.02306   2.03925   2.04403
 Alpha virt. eigenvalues --    2.04991   2.05617   2.06039   2.06646   2.07202
 Alpha virt. eigenvalues --    2.07814   2.08559   2.08674   2.09634   2.10036
 Alpha virt. eigenvalues --    2.10986   2.11550   2.12217   2.12589   2.12894
 Alpha virt. eigenvalues --    2.14338   2.14412   2.16050   2.16787   2.17936
 Alpha virt. eigenvalues --    2.18734   2.19516   2.20064   2.20136   2.21000
 Alpha virt. eigenvalues --    2.21577   2.22259   2.22946   2.23538   2.23798
 Alpha virt. eigenvalues --    2.23985   2.25408   2.25932   2.26153   2.27452
 Alpha virt. eigenvalues --    2.28122   2.28466   2.29354   2.29427   2.29709
 Alpha virt. eigenvalues --    2.30107   2.30378   2.30945   2.32218   2.32570
 Alpha virt. eigenvalues --    2.33777   2.34045   2.34300   2.34369   2.34796
 Alpha virt. eigenvalues --    2.35191   2.36187   2.36324   2.36892   2.37927
 Alpha virt. eigenvalues --    2.38692   2.39115   2.40360   2.41304   2.41499
 Alpha virt. eigenvalues --    2.42301   2.42333   2.43126   2.43571   2.44772
 Alpha virt. eigenvalues --    2.45099   2.45976   2.46260   2.46319   2.46923
 Alpha virt. eigenvalues --    2.47857   2.49029   2.49812   2.50534   2.51768
 Alpha virt. eigenvalues --    2.52156   2.53437   2.54591   2.54628   2.56260
 Alpha virt. eigenvalues --    2.56706   2.57094   2.57418   2.58364   2.59510
 Alpha virt. eigenvalues --    2.60500   2.61087   2.61561   2.62084   2.63365
 Alpha virt. eigenvalues --    2.64297   2.64635   2.64939   2.65349   2.66257
 Alpha virt. eigenvalues --    2.67115   2.67975   2.68361   2.68539   2.69423
 Alpha virt. eigenvalues --    2.70025   2.70739   2.71160   2.72002   2.73008
 Alpha virt. eigenvalues --    2.73405   2.74118   2.74758   2.75312   2.76080
 Alpha virt. eigenvalues --    2.77829   2.78889   2.79377   2.79525   2.79793
 Alpha virt. eigenvalues --    2.79960   2.80382   2.80460   2.81420   2.81872
 Alpha virt. eigenvalues --    2.82056   2.82263   2.82636   2.83695   2.84185
 Alpha virt. eigenvalues --    2.84911   2.85796   2.86354   2.86749   2.87089
 Alpha virt. eigenvalues --    2.87895   2.88329   2.89218   2.91865   2.92152
 Alpha virt. eigenvalues --    2.94428   2.96185   2.97173   2.98419   2.99023
 Alpha virt. eigenvalues --    2.99868   3.01838   3.03663   3.04863   3.05959
 Alpha virt. eigenvalues --    3.07582   3.09764   3.10435   3.13803   3.14599
 Alpha virt. eigenvalues --    3.15278   3.15659   3.16067   3.17788   3.20484
 Alpha virt. eigenvalues --    3.21917   3.22545   3.23522   3.23875   3.26634
 Alpha virt. eigenvalues --    3.46012   3.46954   3.47897   3.49999   3.50292
 Alpha virt. eigenvalues --    3.53087   3.53906   3.56195   3.58039   3.59984
 Alpha virt. eigenvalues --    3.62589   3.71143   3.74530
          Condensed to atoms (all electrons):
 Mulliken charges:
               1
     1  N   -0.311291
     2  C    0.180829
     3  C    0.034332
     4  N   -0.258831
     5  C    0.133854
     6  H    0.027542
     7  N   -0.287719
     8  C    0.125940
     9  H    0.011430
    10  N   -0.289026
    11  C    0.240619
    12  C    0.123392
    13  N   -0.053939
    14  H    0.108440
    15  H    0.088951
    16  H    0.026169
    17  H    0.034608
    18  H    0.026291
    19  N   -0.309365
    20  C    0.234410
    21  C    0.181112
    22  N   -0.111451
    23  H    0.115848
    24  H    0.115814
    25  N   -0.289365
    26  C    0.219281
    27  N   -0.117072
    28  H    0.117217
    29  C    0.144447
    30  O   -0.318748
    31  C    0.005719
    32  N   -0.221226
    33  C    0.129938
    34  H    0.030273
    35  H    0.029829
    36  H    0.027862
    37  H    0.024552
    38  H    0.061673
    39  H    0.059752
    40  H    0.071759
    41  H    0.031313
    42  C   -0.114058
    43  O   -0.268972
    44  C    0.169184
    45  H    0.136975
    46  N   -0.134365
    47  O   -0.351234
    48  C    0.362329
    49  H    0.048474
    50  C    0.176254
    51  C    0.042382
    52  N   -0.293543
    53  H    0.034449
    54  H    0.042241
    55  H    0.011386
    56  H    0.124876
    57  H    0.115149
    58  N   -0.060423
    59  C    0.107633
    60  C    0.226058
    61  N   -0.258355
    62  H    0.058448
    63  C    0.147454
    64  N   -0.297641
    65  H    0.028723
    66  C    0.131359
    67  N   -0.267259
    68  C    0.025448
    69  C    0.171398
    70  N   -0.309535
 Sum of Mulliken charges =  -0.00000
 Mulliken charges with hydrogens summed into heavy atoms:
               1
     1  N   -0.311291
     2  C    0.267896
     3  C    0.034332
     4  N   -0.258831
     5  C    0.161396
     7  N   -0.287719
     8  C    0.137369
    10  N   -0.289026
    11  C    0.240619
    12  C    0.123392
    13  N    0.143452
    19  N   -0.309365
    20  C    0.234410
    21  C    0.263354
    22  N    0.120211
    25  N   -0.289365
    26  C    0.219281
    27  N    0.000145
    29  C    0.144447
    30  O   -0.318748
    31  C    0.005719
    32  N   -0.221226
    33  C    0.160211
    42  C   -0.082745
    43  O   -0.268972
    44  C    0.169184
    46  N    0.002610
    47  O   -0.351234
    48  C    0.362329
    50  C    0.224728
    51  C    0.235566
    52  N   -0.293543
    58  N    0.179602
    59  C    0.107633
    60  C    0.226058
    61  N   -0.258355
    63  C    0.205902
    64  N   -0.297641
    66  C    0.160082
    67  N   -0.267259
    68  C    0.025448
    69  C    0.259474
    70  N   -0.309535
 Electronic spatial extent (au):  <R**2>=          23839.4199
 Charge=             -0.0000 electrons
 Dipole moment (field-independent basis, Debye):
    X=              7.6731    Y=              5.6711    Z=              2.5686  Tot=              9.8811
 Quadrupole moment (field-independent basis, Debye-Ang):
   XX=           -145.5161   YY=           -220.9594   ZZ=           -252.3629
   XY=              5.0320   XZ=             12.6957   YZ=             -8.7513
 Traceless Quadrupole moment (field-independent basis, Debye-Ang):
   XX=             60.7634   YY=            -14.6800   ZZ=            -46.0834
   XY=              5.0320   XZ=             12.6957   YZ=             -8.7513
 Octapole moment (field-independent basis, Debye-Ang**2):
  XXX=             25.6789  YYY=            125.2851  ZZZ=              2.9411  XYY=             68.6513
  XXY=            -64.9162  XXZ=            -63.9848  XZZ=             19.9657  YZZ=             35.0264
  YYZ=             48.0532  XYZ=             44.8647
 Hexadecapole moment (field-independent basis, Debye-Ang**3):
 XXXX=         -15604.6870 YYYY=          -6002.3227 ZZZZ=          -3200.4259 XXXY=            437.1569
 XXXZ=            177.3505 YYYX=             17.7842 YYYZ=           -110.8374 ZZZX=             49.5697
 ZZZY=             27.1956 XXYY=          -4010.2620 XXZZ=          -4162.0660 YYZZ=          -1536.2455
 XXYZ=             98.4216 YYXZ=            231.9910 ZZXY=             43.2986
 N-N= 5.451614688818D+03 E-N=-1.568413860063D+04  KE= 2.037771420920D+03
 No NMR shielding tensors so no spin-rotation constants.
 Leave Link  601 at Tue Jan 23 14:23:06 2018, MaxMem=  4294967296 cpu:              47.1 elap:               1.7
 (Enter /share/apps/g16/l9999.exe)
 1\1\GINC-COMPUTE-0-3\SP\RwB97XD\CC-pVDZ\C23H27N17O3\SATYA\23-Jan-2018\
 0\\#p wb97xd/cc-pvdz sp scf=(maxcycles=20)\\Base pair stacking\\0,1\N,
 0,8.3141,3.97506,-6.47105\C,0,9.42072,4.94609,-6.57363\C,0,6.31626,3.0
 5997,-6.37851\N,0,7.22577,2.01912,-6.25948\C,0,8.39299,2.61209,-6.32\H
 ,0,9.35307,2.09879,-6.25909\N,0,4.31207,4.29491,-6.52372\C,0,5.08034,5
 .38288,-6.6407\H,0,4.54148,6.32341,-6.74702\N,0,6.40806,5.483,-6.64603
 \C,0,6.97224,4.27159,-6.50964\C,0,4.9099,3.09106,-6.38803\N,0,4.1447,2
 .00387,-6.27112\H,0,4.54431,1.09226,-6.1686\H,0,3.14647,2.06349,-6.282
 03\H,0,9.98713,4.72536,-7.36775\H,0,9.04791,5.86773,-6.67715\H,0,9.980
 18,4.90571,-5.74576\N,0,3.15473,6.16803,-3.26456\C,0,2.00026,5.42288,-
 3.26328\C,0,3.22055,7.6401,-3.36129\N,0,-1.46559,5.24594,-3.39872\H,0,
 -2.1692,4.53613,-3.38065\H,0,-1.77838,6.19299,-3.47605\N,0,0.74216,5.9
 0642,-3.34948\C,0,-0.16097,4.94245,-3.32272\N,0,0.14265,3.60653,-3.219
 48\H,0,-0.61308,2.93895,-3.20649\C,0,1.42997,3.08636,-3.12957\O,0,1.59
 513,1.86349,-3.03986\C,0,2.41099,4.10994,-3.15705\N,0,3.79547,4.03238,
 -3.09292\C,0,4.19242,5.2742,-3.16\H,0,5.23443,5.59512,-3.13738\H,0,3.7
 3902,7.89946,-4.17537\H,0,2.29445,8.00951,-3.42565\H,0,3.66983,8.00945
 ,-2.54856\H,0,-4.77894,0.09388,-3.84208\H,0,-4.70953,-0.03016,-2.08582
 \H,0,-4.1327,1.43031,-2.88935\H,0,-1.30746,-3.19716,-3.32784\C,0,-1.44
 003,-2.11826,-3.2464\O,0,0.88331,-1.64308,-3.30466\C,0,-0.28739,-1.270
 29,-3.23206\H,0,0.22239,0.70813,-3.11248\N,0,-0.56666,0.07729,-3.12585
 \O,0,-1.95239,1.86729,-2.94466\C,0,-1.80541,0.66115,-3.03565\H,0,-3.56
 975,-2.1793,-3.16654\C,0,-2.66136,-1.57836,-3.16\C,0,-4.21035,0.3557,-
 2.96218\N,0,-2.86683,-0.22213,-3.05609\H,0,-3.52216,5.38709,-6.86174\H
 ,0,-2.27121,5.80475,-5.90113\H,0,-3.64045,5.20684,-5.24405\H,0,1.25361
 ,-0.26632,-6.31721\H,0,-0.43091,-0.4914,-6.46493\N,0,0.33833,0.13606,-
 6.33931\C,0,0.1508,1.45081,-6.20724\C,0,-1.14858,3.44016,-6.08142\N,0,
 -0.09685,4.25886,-5.91402\H,0,1.9454,4.15393,-5.77681\C,0,1.03913,3.56
 429,-5.90822\N,0,1.22903,2.24746,-6.04035\H,0,-4.25301,2.59614,-6.4012
 3\C,0,-3.1658,2.61416,-6.32\N,0,-2.39629,1.55503,-6.38132\C,0,-1.11469
 ,2.0647,-6.23142\C,0,-3.02116,5.15615,-6.02768\N,0,-2.47712,3.78885,-6
 .1396\\Version=EM64L-G16RevA.03\State=1-A\HF=-2048.7368096\RMSD=6.018e
 -09\Dipole=-3.7370589,1.0496299,-0.2130936\Quadrupole=40.2688191,-6.84
 26328,-33.4261863,17.2139278,-9.0141693,6.4753898\PG=C01 [X(C23H27N17O
 3)]\\@


 IF YOU WANT TO LEARN FROM THE THEORETICAL PHYSICISTS ABOUT THE
 METHODS WHICH THEY USE, I ADVISE YOU TO FOLLOW THIS PRINCIPLE VERY STRICTLY:
 DON'T LISTEN TO THEIR WORDS; PAY ATTENTION, INSTEAD, TO THEIR ACTIONS.
 -- A.EINSTEIN, 1934
 Job cpu time:       0 days  6 hours  8 minutes 57.4 seconds.
 Elapsed time:       0 days  0 hours 12 minutes  7.2 seconds.
 File lengths (MBytes):  RWF=    298 Int=      0 D2E=      0 Chk=     33 Scr=      1
 Normal termination of Gaussian 16 at Tue Jan 23 14:23:06 2018.
