 Entering Gaussian System, Link 0=g16
 Input=str25.-10.-1.0.com
 Output=str25.-10.-1.0.log
 Initial command:
 /share/apps/g16/l1.exe "/state/partition1/scr/Gau-9939.inp" -scrdir="/state/partition1/scr/"
 Entering Link 1 = /share/apps/g16/l1.exe PID=      9940.
  
 Copyright (c) 1988,1990,1992,1993,1995,1998,2003,2009,2016,
            Gaussian, Inc.  All Rights Reserved.
  
 This is part of the Gaussian(R) 16 program.  It is based on
 the Gaussian(R) 09 system (copyright 2009, Gaussian, Inc.),
 the Gaussian(R) 03 system (copyright 2003, Gaussian, Inc.),
 the Gaussian(R) 98 system (copyright 1998, Gaussian, Inc.),
 the Gaussian(R) 94 system (copyright 1995, Gaussian, Inc.),
 the Gaussian 92(TM) system (copyright 1992, Gaussian, Inc.),
 the Gaussian 90(TM) system (copyright 1990, Gaussian, Inc.),
 the Gaussian 88(TM) system (copyright 1988, Gaussian, Inc.),
 the Gaussian 86(TM) system (copyright 1986, Carnegie Mellon
 University), and the Gaussian 82(TM) system (copyright 1983,
 Carnegie Mellon University). Gaussian is a federally registered
 trademark of Gaussian, Inc.
  
 This software contains proprietary and confidential information,
 including trade secrets, belonging to Gaussian, Inc.
  
 This software is provided under written license and may be
 used, copied, transmitted, or stored only in accord with that
 written license.
  
 The following legend is applicable only to US Government
 contracts under FAR:
  
                    RESTRICTED RIGHTS LEGEND
  
 Use, reproduction and disclosure by the US Government is
 subject to restrictions as set forth in subparagraphs (a)
 and (c) of the Commercial Computer Software - Restricted
 Rights clause in FAR 52.227-19.
  
 Gaussian, Inc.
 340 Quinnipiac St., Bldg. 40, Wallingford CT 06492
  
  
 ---------------------------------------------------------------
 Warning -- This program may not be used in any manner that
 competes with the business of Gaussian, Inc. or will provide
 assistance to any competitor of Gaussian, Inc.  The licensee
 of this program is prohibited from giving any competitor of
 Gaussian, Inc. access to this program.  By using this program,
 the user acknowledges that Gaussian, Inc. is engaged in the
 business of creating and licensing software in the field of
 computational chemistry and represents and warrants to the
 licensee that it is not a competitor of Gaussian, Inc. and that
 it will not use this program in any manner prohibited above.
 ---------------------------------------------------------------
  

 Cite this work as:
 Gaussian 16, Revision A.03,
 M. J. Frisch, G. W. Trucks, H. B. Schlegel, G. E. Scuseria, 
 M. A. Robb, J. R. Cheeseman, G. Scalmani, V. Barone, 
 G. A. Petersson, H. Nakatsuji, X. Li, M. Caricato, A. V. Marenich, 
 J. Bloino, B. G. Janesko, R. Gomperts, B. Mennucci, H. P. Hratchian, 
 J. V. Ortiz, A. F. Izmaylov, J. L. Sonnenberg, D. Williams-Young, 
 F. Ding, F. Lipparini, F. Egidi, J. Goings, B. Peng, A. Petrone, 
 T. Henderson, D. Ranasinghe, V. G. Zakrzewski, J. Gao, N. Rega, 
 G. Zheng, W. Liang, M. Hada, M. Ehara, K. Toyota, R. Fukuda, 
 J. Hasegawa, M. Ishida, T. Nakajima, Y. Honda, O. Kitao, H. Nakai, 
 T. Vreven, K. Throssell, J. A. Montgomery, Jr., J. E. Peralta, 
 F. Ogliaro, M. J. Bearpark, J. J. Heyd, E. N. Brothers, K. N. Kudin, 
 V. N. Staroverov, T. A. Keith, R. Kobayashi, J. Normand, 
 K. Raghavachari, A. P. Rendell, J. C. Burant, S. S. Iyengar, 
 J. Tomasi, M. Cossi, J. M. Millam, M. Klene, C. Adamo, R. Cammi, 
 J. W. Ochterski, R. L. Martin, K. Morokuma, O. Farkas, 
 J. B. Foresman, and D. J. Fox, Gaussian, Inc., Wallingford CT, 2016.
 
 ******************************************
 Gaussian 16:  EM64L-G16RevA.03 25-Dec-2016
                20-Jan-2018 
 ******************************************
 %nprocshared=32
 Will use up to   32 processors via shared memory.
 %mem=32GB
 %chk=allatoms_t.chk
 ---------------------------------------
 #p wb97xd/cc-pvdz sp scf=(maxcycles=20)
 ---------------------------------------
 1/38=1,172=1/1;
 2/12=2,17=6,18=5,40=1/2;
 3/5=16,11=2,25=1,30=1,74=-58/1,2,3;
 4//1;
 5/5=2,7=20,38=5/2;
 6/7=2,8=2,9=2,10=2,28=1/1;
 99/5=1,9=1/99;
 Leave Link    1 at Sat Jan 20 10:30:23 2018, MaxMem=  4294967296 cpu:               2.7 elap:               0.1
 (Enter /share/apps/g16/l101.exe)
 ------------------
 Base pair stacking
 ------------------
 Symbolic Z-matrix:
 Charge =  0 Multiplicity = 1
 N                     3.20186   6.72019  -6.8484 
 C                     3.42886   8.178    -6.81283 
 C                     2.26965   4.73043  -6.75274 
 N                     3.60261   4.51944  -7.07433 
 C                     4.11088   5.72664  -7.11909 
 H                     5.15301   5.95252  -7.34688 
 N                    -0.00769   4.38411  -6.24604 
 C                    -0.10808   5.71331  -6.1424 
 H                    -1.09972   6.08647  -5.89008 
 N                     0.82816   6.64637  -6.30289 
 C                     2.00772   6.08196  -6.61032 
 C                     1.19246   3.84719  -6.55657 
 N                     1.29467   2.52057  -6.66048 
 H                     2.16354   2.07975  -6.88845 
 H                     0.50668   1.92242  -6.51408 
 H                     3.75009   8.48862  -7.70754 
 H                     2.5739    8.64379  -6.58658 
 H                     4.11725   8.39345  -6.12023 
 N                     0.70156   5.8511   -3.21849 
 C                    -0.12183   4.75549  -3.11984 
 C                     0.2565    7.25885  -3.18925 
 N                    -3.30267   3.40494  -2.77345 
 H                    -3.71651   2.4966   -2.71956 
 H                    -3.92116   4.18928  -2.7187 
 N                    -1.46498   4.78071  -2.98074 
 C                    -1.97797   3.56504  -2.91286 
 N                    -1.23423   2.41163  -2.97616 
 H                    -1.71134   1.52523  -2.91597 
 C                     0.14887   2.36192  -3.11911 
 O                     0.7242    1.26759  -3.16564 
 C                     0.71419   3.66029  -3.19342 
 N                     2.03584   4.06029  -3.3354 
 C                     1.97975   5.3645   -3.34529 
 H                     2.84394   6.02247  -3.4429 
 H                     0.51667   7.7102   -4.04213 
 H                    -0.73684   7.29009  -3.08653 
 H                     0.68514   7.72975  -2.41897 
 H                    -4.73643  -2.55128  -3.20516 
 H                    -4.33996  -2.70858  -1.49556 
 H                    -4.42379  -1.1103   -2.23707 
 H                    -0.33296  -4.46759  -3.49467 
 C                    -0.80178  -3.5035   -3.29725 
 O                     1.18712  -2.258    -3.64389 
 C                    -0.01175  -2.31259  -3.37088 
 H                    -0.17745  -0.28521  -3.14592 
 N                    -0.70209  -1.14759  -3.1036 
 O                    -2.55446   0.05014  -2.56381 
 C                    -2.03149  -1.02808  -2.7843 
 H                    -2.74525  -4.29465  -2.91933 
 C                    -2.10099  -3.41912  -2.98819 
 C                    -4.15012  -2.14284  -2.39554 
 N                    -2.72609  -2.22059  -2.73294 
 H                    -6.63528   0.19378  -5.1513 
 H                    -5.65907   1.18105  -4.29432 
 H                    -6.13997  -0.24344  -3.65901 
 H                     0.45134  -1.04402  -6.97151 
 H                    -0.72418  -2.27992  -6.94286 
 N                    -0.48017  -1.32969  -6.74604 
 C                    -1.35868  -0.48195  -6.20684 
 C                    -3.47244   0.15542  -5.31942 
 N                    -3.11694   1.42578  -5.066 
 H                    -1.48096   2.64628  -5.25189 
 C                    -1.85192   1.6368   -5.42392 
 N                    -0.97041   0.78904  -5.96412 
 H                    -5.39931  -2.43788  -5.43831 
 C                    -4.56961  -1.7338   -5.50772 
 N                    -3.38421  -2.02375  -5.98566 
 C                    -2.67872  -0.83459  -5.87207 
 C                    -5.87639   0.22753  -4.50096 
 N                    -4.69318  -0.43232  -5.0863 
 
 ITRead=  0  0  0  0  0  0  0  0  0  0  0  0  0  0  0  0  0  0  0  0
 ITRead=  0  0  0  0  0  0  0  0  0  0  0  0  0  0  0  0  0  0  0  0
 ITRead=  0  0  0  0  0  0  0  0  0  0  0  0  0  0  0  0  0  0  0  0
 ITRead=  0  0  0  0  0  0  0  0  0  0
 MicOpt= -1 -1 -1 -1 -1 -1 -1 -1 -1 -1 -1 -1 -1 -1 -1 -1 -1 -1 -1 -1
 MicOpt= -1 -1 -1 -1 -1 -1 -1 -1 -1 -1 -1 -1 -1 -1 -1 -1 -1 -1 -1 -1
 MicOpt= -1 -1 -1 -1 -1 -1 -1 -1 -1 -1 -1 -1 -1 -1 -1 -1 -1 -1 -1 -1
 MicOpt= -1 -1 -1 -1 -1 -1 -1 -1 -1 -1
 NAtoms=     70 NQM=       70 NQMF=       0 NMMI=      0 NMMIF=      0
                NMic=       0 NMicF=      0.
                    Isotopes and Nuclear Properties:
 (Nuclear quadrupole moments (NQMom) in fm**2, nuclear magnetic moments (NMagM)
  in nuclear magnetons)

  Atom         1           2           3           4           5           6           7           8           9          10
 IAtWgt=          14          12          12          14          12           1          14          12           1          14
 AtmWgt=  14.0030740  12.0000000  12.0000000  14.0030740  12.0000000   1.0078250  14.0030740  12.0000000   1.0078250  14.0030740
 NucSpn=           2           0           0           2           0           1           2           0           1           2
 AtZEff=  -0.0000000  -0.0000000  -0.0000000  -0.0000000  -0.0000000  -0.0000000  -0.0000000  -0.0000000  -0.0000000  -0.0000000
 NQMom=    2.0440000   0.0000000   0.0000000   2.0440000   0.0000000   0.0000000   2.0440000   0.0000000   0.0000000   2.0440000
 NMagM=    0.4037610   0.0000000   0.0000000   0.4037610   0.0000000   2.7928460   0.4037610   0.0000000   2.7928460   0.4037610
 AtZNuc=   7.0000000   6.0000000   6.0000000   7.0000000   6.0000000   1.0000000   7.0000000   6.0000000   1.0000000   7.0000000

  Atom        11          12          13          14          15          16          17          18          19          20
 IAtWgt=          12          12          14           1           1           1           1           1          14          12
 AtmWgt=  12.0000000  12.0000000  14.0030740   1.0078250   1.0078250   1.0078250   1.0078250   1.0078250  14.0030740  12.0000000
 NucSpn=           0           0           2           1           1           1           1           1           2           0
 AtZEff=  -0.0000000  -0.0000000  -0.0000000  -0.0000000  -0.0000000  -0.0000000  -0.0000000  -0.0000000  -0.0000000  -0.0000000
 NQMom=    0.0000000   0.0000000   2.0440000   0.0000000   0.0000000   0.0000000   0.0000000   0.0000000   2.0440000   0.0000000
 NMagM=    0.0000000   0.0000000   0.4037610   2.7928460   2.7928460   2.7928460   2.7928460   2.7928460   0.4037610   0.0000000
 AtZNuc=   6.0000000   6.0000000   7.0000000   1.0000000   1.0000000   1.0000000   1.0000000   1.0000000   7.0000000   6.0000000

  Atom        21          22          23          24          25          26          27          28          29          30
 IAtWgt=          12          14           1           1          14          12          14           1          12          16
 AtmWgt=  12.0000000  14.0030740   1.0078250   1.0078250  14.0030740  12.0000000  14.0030740   1.0078250  12.0000000  15.9949146
 NucSpn=           0           2           1           1           2           0           2           1           0           0
 AtZEff=  -0.0000000  -0.0000000  -0.0000000  -0.0000000  -0.0000000  -0.0000000  -0.0000000  -0.0000000  -0.0000000  -0.0000000
 NQMom=    0.0000000   2.0440000   0.0000000   0.0000000   2.0440000   0.0000000   2.0440000   0.0000000   0.0000000   0.0000000
 NMagM=    0.0000000   0.4037610   2.7928460   2.7928460   0.4037610   0.0000000   0.4037610   2.7928460   0.0000000   0.0000000
 AtZNuc=   6.0000000   7.0000000   1.0000000   1.0000000   7.0000000   6.0000000   7.0000000   1.0000000   6.0000000   8.0000000

  Atom        31          32          33          34          35          36          37          38          39          40
 IAtWgt=          12          14          12           1           1           1           1           1           1           1
 AtmWgt=  12.0000000  14.0030740  12.0000000   1.0078250   1.0078250   1.0078250   1.0078250   1.0078250   1.0078250   1.0078250
 NucSpn=           0           2           0           1           1           1           1           1           1           1
 AtZEff=  -0.0000000  -0.0000000  -0.0000000  -0.0000000  -0.0000000  -0.0000000  -0.0000000  -0.0000000  -0.0000000  -0.0000000
 NQMom=    0.0000000   2.0440000   0.0000000   0.0000000   0.0000000   0.0000000   0.0000000   0.0000000   0.0000000   0.0000000
 NMagM=    0.0000000   0.4037610   0.0000000   2.7928460   2.7928460   2.7928460   2.7928460   2.7928460   2.7928460   2.7928460
 AtZNuc=   6.0000000   7.0000000   6.0000000   1.0000000   1.0000000   1.0000000   1.0000000   1.0000000   1.0000000   1.0000000

  Atom        41          42          43          44          45          46          47          48          49          50
 IAtWgt=           1          12          16          12           1          14          16          12           1          12
 AtmWgt=   1.0078250  12.0000000  15.9949146  12.0000000   1.0078250  14.0030740  15.9949146  12.0000000   1.0078250  12.0000000
 NucSpn=           1           0           0           0           1           2           0           0           1           0
 AtZEff=  -0.0000000  -0.0000000  -0.0000000  -0.0000000  -0.0000000  -0.0000000  -0.0000000  -0.0000000  -0.0000000  -0.0000000
 NQMom=    0.0000000   0.0000000   0.0000000   0.0000000   0.0000000   2.0440000   0.0000000   0.0000000   0.0000000   0.0000000
 NMagM=    2.7928460   0.0000000   0.0000000   0.0000000   2.7928460   0.4037610   0.0000000   0.0000000   2.7928460   0.0000000
 AtZNuc=   1.0000000   6.0000000   8.0000000   6.0000000   1.0000000   7.0000000   8.0000000   6.0000000   1.0000000   6.0000000

  Atom        51          52          53          54          55          56          57          58          59          60
 IAtWgt=          12          14           1           1           1           1           1          14          12          12
 AtmWgt=  12.0000000  14.0030740   1.0078250   1.0078250   1.0078250   1.0078250   1.0078250  14.0030740  12.0000000  12.0000000
 NucSpn=           0           2           1           1           1           1           1           2           0           0
 AtZEff=  -0.0000000  -0.0000000  -0.0000000  -0.0000000  -0.0000000  -0.0000000  -0.0000000  -0.0000000  -0.0000000  -0.0000000
 NQMom=    0.0000000   2.0440000   0.0000000   0.0000000   0.0000000   0.0000000   0.0000000   2.0440000   0.0000000   0.0000000
 NMagM=    0.0000000   0.4037610   2.7928460   2.7928460   2.7928460   2.7928460   2.7928460   0.4037610   0.0000000   0.0000000
 AtZNuc=   6.0000000   7.0000000   1.0000000   1.0000000   1.0000000   1.0000000   1.0000000   7.0000000   6.0000000   6.0000000

  Atom        61          62          63          64          65          66          67          68          69          70
 IAtWgt=          14           1          12          14           1          12          14          12          12          14
 AtmWgt=  14.0030740   1.0078250  12.0000000  14.0030740   1.0078250  12.0000000  14.0030740  12.0000000  12.0000000  14.0030740
 NucSpn=           2           1           0           2           1           0           2           0           0           2
 AtZEff=  -0.0000000  -0.0000000  -0.0000000  -0.0000000  -0.0000000  -0.0000000  -0.0000000  -0.0000000  -0.0000000  -0.0000000
 NQMom=    2.0440000   0.0000000   0.0000000   2.0440000   0.0000000   0.0000000   2.0440000   0.0000000   0.0000000   2.0440000
 NMagM=    0.4037610   2.7928460   0.0000000   0.4037610   2.7928460   0.0000000   0.4037610   0.0000000   0.0000000   0.4037610
 AtZNuc=   7.0000000   1.0000000   6.0000000   7.0000000   1.0000000   6.0000000   7.0000000   6.0000000   6.0000000   7.0000000
 Leave Link  101 at Sat Jan 20 10:30:24 2018, MaxMem=  4294967296 cpu:               7.6 elap:               0.3
 (Enter /share/apps/g16/l202.exe)
 Stoichiometry    C23H27N17O3
 Framework group  C1[X(C23H27N17O3)]
 Deg. of freedom   204
 Full point group                 C1      NOp   1
 Largest Abelian subgroup         C1      NOp   1
 Largest concise Abelian subgroup C1      NOp   1
                         Standard orientation:                         
 ---------------------------------------------------------------------
 Center     Atomic      Atomic             Coordinates (Angstroms)
 Number     Number       Type             X           Y           Z
 ---------------------------------------------------------------------
      1          7           0        6.334039   -1.169579   -0.650747
      2          6           0        7.657939   -0.518050   -0.679137
      3          6           0        4.172963   -1.555823   -0.784443
      4          7           0        4.758404   -2.753997   -0.401878
      5          6           0        6.036939   -2.473343   -0.336643
      6          1           0        6.814957   -3.186237   -0.062024
      7          7           0        2.593490    0.086412   -1.393778
      8          6           0        3.625726    0.928878   -1.504835
      9          1           0        3.367378    1.944078   -1.802976
     10          7           0        4.923072    0.706620   -1.303842
     11          6           0        5.131594   -0.570007   -0.941658
     12          6           0        2.836254   -1.191106   -1.027603
     13          7           0        1.807169   -2.033566   -0.916207
     14          1           0        1.940219   -2.988296   -0.647849
     15          1           0        0.868643   -1.739298   -1.097090
     16          1           0        8.246320   -0.984334   -1.339868
     17          1           0        7.553268    0.439736   -0.945210
     18          1           0        8.075102   -0.566447    0.228402
     19          7           0        3.640626    1.775713    1.411739
     20          6           0        2.278922    1.801805    1.229684
     21          6           0        4.569771    2.868861    1.061865
     22          7           0       -0.581986    3.457489    0.164024
     23          1           0       -1.564194    3.277622    0.117497
     24          1           0       -0.266574    4.344290   -0.174823
     25          7           0        1.566691    2.822237    0.704821
     26          6           0        0.274471    2.550877    0.658425
     27          7           0       -0.279858    1.371065    1.092330
     28          1           0       -1.278337    1.250461    1.018468
     29          6           0        0.433791    0.307474    1.635791
     30          8           0       -0.163284   -0.714221    1.996858
     31          6           0        1.823435    0.584226    1.692112
     32          7           0        2.877969   -0.190664    2.155166
     33          6           0        3.933247    0.555045    1.969386
     34          1           0        4.952841    0.262250    2.222319
     35          1           0        5.235298    2.541321    0.392089
     36          1           0        4.053515    3.630323    0.672113
     37          1           0        5.048141    3.177654    1.883218
     38          1           0       -6.206456    1.019700   -0.211623
     39          1           0       -6.435833    1.439195    1.484276
     40          1           0       -5.019261    2.029337    0.614551
     41          1           0       -5.424128   -3.248855    1.865397
     42          6           0       -4.906221   -2.303763    1.701661
     43          8           0       -2.760918   -3.180042    2.208579
     44          6           0       -3.487467   -2.243024    1.878537
     45          1           0       -1.931708   -0.918558    1.761334
     46          7           0       -2.932082   -1.000893    1.646396
     47          8           0       -3.011218    1.199759    1.091350
     48          6           0       -3.591202    0.143871    1.274086
     49          1           0       -6.655892   -1.197395    1.191350
     50          6           0       -5.576754   -1.204034    1.338940
     51          6           0       -5.703912    1.201790    0.726651
     52          7           0       -4.956963    0.005058    1.123698
     53          1           0       -4.577598    2.956977   -3.130908
     54          1           0       -3.397333    3.202546   -2.031466
     55          1           0       -4.948200    3.054911   -1.544565
     56          1           0       -1.541635   -3.526975   -1.179807
     57          1           0       -3.192890   -3.362226   -1.575197
     58          7           0       -2.310567   -2.925392   -1.396596
     59          6           0       -2.166807   -1.599454   -1.445588
     60          6           0       -2.911681    0.638605   -1.758625
     61          7           0       -1.714919    1.197599   -1.514284
     62          1           0        0.194617    0.629132   -1.033532
     63          6           0       -0.808303    0.260488   -1.244504
     64          7           0       -0.950318   -1.068025   -1.194944
     65          1           0       -6.059740    0.523344   -2.485680
     66          6           0       -5.025115    0.292819   -2.230029
     67          7           0       -4.554894   -0.916462   -2.045087
     68          6           0       -3.215870   -0.711518   -1.745534
     69          6           0       -4.266549    2.740681   -2.205457
     70          7           0       -4.085328    1.282097   -2.072406
 ---------------------------------------------------------------------
 Rotational constants (GHZ):           0.1691619           0.0527046           0.0499871
 Leave Link  202 at Sat Jan 20 10:30:24 2018, MaxMem=  4294967296 cpu:               0.4 elap:               0.0
 (Enter /share/apps/g16/l301.exe)
 Standard basis: CC-pVDZ (5D, 7F)
 Ernie: Thresh=  0.10000D-02 Tol=  0.10000D-05 Strict=F.
 Ernie:  86 primitive shells out of 1081 were deleted.
 There are   780 symmetry adapted cartesian basis functions of A   symmetry.
 There are   737 symmetry adapted basis functions of A   symmetry.
   737 basis functions,  1608 primitive gaussians,   780 cartesian basis functions
   154 alpha electrons      154 beta electrons
       nuclear repulsion energy      5591.7080882288 Hartrees.
 IExCor= 4639 DFT=T Ex+Corr=wB97XD ExCW=0 ScaHFX=  1.000000
 ScaDFX=  1.000000  1.000000  1.000000  1.000000 ScalE2=  1.000000  1.000000
 IRadAn=      5 IRanWt=     -1 IRanGd=            0 ICorTp=0 IEmpDi=121
 HFx  wShort=  0.000000 wLong=  0.200000 cFull=  0.222036 cShort=  0.000000 cLong=  0.777964
 DFx  wShort=  0.000000 wLong=  0.200000 cFull=  0.000000 cShort=  0.000000 cLong=  1.000000
 NAtoms=   70 NActive=   70 NUniq=   70 SFac= 1.00D+00 NAtFMM=   60 NAOKFM=T Big=T
 Integral buffers will be    131072 words long.
 Raffenetti 2 integral format.
 Two-electron integral symmetry is turned on.
 R6Disp:  Grimme-D2 Dispersion energy=       -0.0782413677 Hartrees.
 Nuclear repulsion after empirical dispersion term =     5591.6298468611 Hartrees.
 Leave Link  301 at Sat Jan 20 10:30:24 2018, MaxMem=  4294967296 cpu:               3.0 elap:               0.1
 (Enter /share/apps/g16/l302.exe)
 NPDir=0 NMtPBC=     1 NCelOv=     1 NCel=       1 NClECP=     1 NCelD=      1
         NCelK=      1 NCelE2=     1 NClLst=     1 CellRange=     0.0.
 One-electron integrals computed using PRISM.
 One-electron integral symmetry used in STVInt
 NBasis=   737 RedAO= T EigKep=  6.91D-04  NBF=   737
 NBsUse=   737 1.00D-06 EigRej= -1.00D+00 NBFU=   737
 Precomputing XC quadrature grid using
 IXCGrd= 4 IRadAn=           5 IRanWt=          -1 IRanGd=           0 AccXCQ= 0.00D+00.
 Generated NRdTot=       0 NPtTot=           0 NUsed=           0 NTot=          32
 NSgBfM=   768   768   768   768   768 MxSgAt=    70 MxSgA2=    70.
 Leave Link  302 at Sat Jan 20 10:30:28 2018, MaxMem=  4294967296 cpu:             135.6 elap:               4.3
 (Enter /share/apps/g16/l303.exe)
 DipDrv:  MaxL=1.
 Leave Link  303 at Sat Jan 20 10:30:29 2018, MaxMem=  4294967296 cpu:              12.6 elap:               0.4
 (Enter /share/apps/g16/l401.exe)
 ExpMin= 1.22D-01 ExpMax= 1.17D+04 ExpMxC= 4.01D+02 IAcc=3 IRadAn=         5 AccDes= 0.00D+00
 Harris functional with IExCor= 4639 and IRadAn=       5 diagonalized for initial guess.
 HarFok:  IExCor= 4639 AccDes= 0.00D+00 IRadAn=         5 IDoV= 1 UseB2=F ITyADJ=14
 ICtDFT=  3500011 ScaDFX=  1.000000  1.000000  1.000000  1.000000
 FoFCou: FMM=F IPFlag=           0 FMFlag=      100000 FMFlg1=        2001
         NFxFlg=           0 DoJE=T BraDBF=F KetDBF=T FulRan=T
         wScrn=  0.000000 ICntrl=       500 IOpCl=  0 I1Cent=   200000004 NGrid=           0
         NMat0=    1 NMatS0=      1 NMatT0=    0 NMatD0=    1 NMtDS0=    0 NMtDT0=    0
 Petite list used in FoFCou.
 Harris En= -1963.87662622483    
 JPrj=0 DoOrth=F DoCkMO=F.
 Leave Link  401 at Sat Jan 20 10:30:41 2018, MaxMem=  4294967296 cpu:             411.2 elap:              12.9
 (Enter /share/apps/g16/l502.exe)
 Integral symmetry usage will be decided dynamically.
 Closed shell SCF:
 Using DIIS extrapolation, IDIIS=  1040.
 NGot=  4294967296 LenX=  4293717438 LenY=  4293108258
 Requested convergence on RMS density matrix=1.00D-08 within  20 cycles.
 Requested convergence on MAX density matrix=1.00D-06.
 Requested convergence on             energy=1.00D-06.
 No special actions if energy rises.
 Fock matrices will be formed incrementally for  20 cycles.
 Integral accuracy reduced to 1.0D-05 until final iterations.

 Cycle   1  Pass 0  IDiag  1:
 FoFJK:  IHMeth= 1 ICntrl=       0 DoSepK=T KAlg= 0 I1Cent=           0 FoldK=F
 IRaf=         1 NMat=       1 IRICut=       1 DoRegI=T DoRafI=F ISym2E= 0 IDoP0=0 IntGTp=1.
 FoFCou: FMM=T IPFlag=           0 FMFlag=      100000 FMFlg1=        2001
         NFxFlg=           0 DoJE=T BraDBF=F KetDBF=F FulRan=T
         wScrn=  0.000000 ICntrl=       500 IOpCl=  0 I1Cent=           0 NGrid=           0
         NMat0=    1 NMatS0=      1 NMatT0=    0 NMatD0=    1 NMtDS0=    0 NMtDT0=    0
 Symmetry not used in FoFCou.
 FMM levels:  10  Number of levels for PrismC:   9
 E= -2048.31156013042    
 DIIS: error= 2.33D-02 at cycle   1 NSaved=   1.
 NSaved= 1 IEnMin= 1 EnMin= -2048.31156013042     IErMin= 1 ErrMin= 2.33D-02
 ErrMax= 2.33D-02  0.00D+00 EMaxC= 1.00D-01 BMatC= 8.33D-01 BMatP= 8.33D-01
 IDIUse=3 WtCom= 7.67D-01 WtEn= 2.33D-01
 Coeff-Com:  0.100D+01
 Coeff-En:   0.100D+01
 Coeff:      0.100D+01
 Gap=     0.250 Goal=   None    Shift=    0.000
 GapD=    0.250 DampG=1.000 DampE=0.500 DampFc=0.5000 IDamp=-1.
 Damping current iteration by 5.00D-01
 RMSDP=1.58D-03 MaxDP=1.29D-01              OVMax= 2.02D-01

 Cycle   2  Pass 0  IDiag  1:
 RMSU=  7.91D-04    CP:  9.98D-01
 E= -2048.50765750788     Delta-E=       -0.196097377461 Rises=F Damp=T
 DIIS: error= 1.11D-02 at cycle   2 NSaved=   2.
 NSaved= 2 IEnMin= 2 EnMin= -2048.50765750788     IErMin= 2 ErrMin= 1.11D-02
 ErrMax= 1.11D-02  0.00D+00 EMaxC= 1.00D-01 BMatC= 1.45D-01 BMatP= 8.33D-01
 IDIUse=3 WtCom= 8.89D-01 WtEn= 1.11D-01
 Coeff-Com: -0.192D+00 0.119D+01
 Coeff-En:   0.000D+00 0.100D+01
 Coeff:     -0.171D+00 0.117D+01
 Gap=     0.357 Goal=   None    Shift=    0.000
 RMSDP=5.94D-04 MaxDP=3.45D-02 DE=-1.96D-01 OVMax= 1.44D-01

 Cycle   3  Pass 0  IDiag  1:
 RMSU=  5.85D-04    CP:  9.94D-01  1.12D+00
 E= -2048.68516237275     Delta-E=       -0.177504864866 Rises=F Damp=F
 DIIS: error= 7.69D-03 at cycle   3 NSaved=   3.
 NSaved= 3 IEnMin= 3 EnMin= -2048.68516237275     IErMin= 3 ErrMin= 7.69D-03
 ErrMax= 7.69D-03  0.00D+00 EMaxC= 1.00D-01 BMatC= 6.62D-02 BMatP= 1.45D-01
 IDIUse=3 WtCom= 9.23D-01 WtEn= 7.69D-02
 Coeff-Com: -0.234D+00 0.556D+00 0.678D+00
 Coeff-En:   0.000D+00 0.000D+00 0.100D+01
 Coeff:     -0.216D+00 0.513D+00 0.703D+00
 Gap=     0.277 Goal=   None    Shift=    0.000
 RMSDP=3.72D-04 MaxDP=3.31D-02 DE=-1.78D-01 OVMax= 7.20D-02

 Cycle   4  Pass 0  IDiag  1:
 RMSU=  2.08D-04    CP:  9.94D-01  1.41D+00  6.58D-01
 E= -2048.73521318215     Delta-E=       -0.050050809406 Rises=F Damp=F
 DIIS: error= 2.55D-03 at cycle   4 NSaved=   4.
 NSaved= 4 IEnMin= 4 EnMin= -2048.73521318215     IErMin= 4 ErrMin= 2.55D-03
 ErrMax= 2.55D-03  0.00D+00 EMaxC= 1.00D-01 BMatC= 9.66D-03 BMatP= 6.62D-02
 IDIUse=3 WtCom= 9.75D-01 WtEn= 2.55D-02
 Coeff-Com: -0.965D-01 0.187D+00 0.378D+00 0.531D+00
 Coeff-En:   0.000D+00 0.000D+00 0.723D-01 0.928D+00
 Coeff:     -0.940D-01 0.182D+00 0.370D+00 0.542D+00
 Gap=     0.281 Goal=   None    Shift=    0.000
 RMSDP=1.31D-04 MaxDP=1.17D-02 DE=-5.01D-02 OVMax= 1.55D-02

 Cycle   5  Pass 0  IDiag  1:
 RMSU=  6.17D-05    CP:  9.94D-01  1.38D+00  7.96D-01  6.16D-01
 E= -2048.74330782425     Delta-E=       -0.008094642095 Rises=F Damp=F
 DIIS: error= 5.64D-04 at cycle   5 NSaved=   5.
 NSaved= 5 IEnMin= 5 EnMin= -2048.74330782425     IErMin= 5 ErrMin= 5.64D-04
 ErrMax= 5.64D-04  0.00D+00 EMaxC= 1.00D-01 BMatC= 2.85D-04 BMatP= 9.66D-03
 IDIUse=3 WtCom= 9.94D-01 WtEn= 5.64D-03
 Coeff-Com: -0.245D-01 0.419D-01 0.120D+00 0.235D+00 0.628D+00
 Coeff-En:   0.000D+00 0.000D+00 0.000D+00 0.000D+00 0.100D+01
 Coeff:     -0.244D-01 0.417D-01 0.119D+00 0.233D+00 0.630D+00
 Gap=     0.281 Goal=   None    Shift=    0.000
 RMSDP=2.64D-05 MaxDP=1.78D-03 DE=-8.09D-03 OVMax= 3.28D-03

 Failed to achieve initial convergence to 1.0D-08 in  6 cycles.
 Switch to full accuracy anyway.
 Cycle   6  Pass 1  IDiag  1:
 E= -2048.74343224242     Delta-E=       -0.000124418175 Rises=F Damp=F
 DIIS: error= 2.39D-04 at cycle   1 NSaved=   1.
 NSaved= 1 IEnMin= 1 EnMin= -2048.74343224242     IErMin= 1 ErrMin= 2.39D-04
 ErrMax= 2.39D-04  0.00D+00 EMaxC= 1.00D-01 BMatC= 7.39D-05 BMatP= 7.39D-05
 IDIUse=3 WtCom= 9.98D-01 WtEn= 2.39D-03
 Coeff-Com:  0.100D+01
 Coeff-En:   0.100D+01
 Coeff:      0.100D+01
 Gap=     0.281 Goal=   None    Shift=    0.000
 RMSDP=2.64D-05 MaxDP=1.78D-03 DE=-1.24D-04 OVMax= 2.69D-03

 Cycle   7  Pass 1  IDiag  1:
 RMSU=  1.07D-04    CP:  1.00D+00
 E= -2048.74348493354     Delta-E=       -0.000052691118 Rises=F Damp=F
 DIIS: error= 2.57D-04 at cycle   2 NSaved=   2.
 NSaved= 2 IEnMin= 2 EnMin= -2048.74348493354     IErMin= 1 ErrMin= 2.39D-04
 ErrMax= 2.57D-04  0.00D+00 EMaxC= 1.00D-01 BMatC= 4.34D-05 BMatP= 7.39D-05
 IDIUse=3 WtCom= 9.97D-01 WtEn= 2.57D-03
 Coeff-Com:  0.411D+00 0.589D+00
 Coeff-En:   0.000D+00 0.100D+01
 Coeff:      0.410D+00 0.590D+00
 Gap=     0.281 Goal=   None    Shift=    0.000
 RMSDP=1.14D-05 MaxDP=1.02D-03 DE=-5.27D-05 OVMax= 1.60D-03

 Cycle   8  Pass 1  IDiag  1:
 RMSU=  1.11D-05    CP:  1.00D+00  1.02D+00
 E= -2048.74351708253     Delta-E=       -0.000032148992 Rises=F Damp=F
 DIIS: error= 9.55D-05 at cycle   3 NSaved=   3.
 NSaved= 3 IEnMin= 3 EnMin= -2048.74351708253     IErMin= 3 ErrMin= 9.55D-05
 ErrMax= 9.55D-05  0.00D+00 EMaxC= 1.00D-01 BMatC= 9.70D-06 BMatP= 4.34D-05
 IDIUse=1 WtCom= 1.00D+00 WtEn= 0.00D+00
 Coeff-Com: -0.188D-01 0.307D+00 0.712D+00
 Coeff:     -0.188D-01 0.307D+00 0.712D+00
 Gap=     0.281 Goal=   None    Shift=    0.000
 RMSDP=5.56D-06 MaxDP=4.41D-04 DE=-3.21D-05 OVMax= 5.82D-04

 Cycle   9  Pass 1  IDiag  1:
 RMSU=  3.83D-06    CP:  1.00D+00  1.05D+00  7.66D-01
 E= -2048.74352642750     Delta-E=       -0.000009344967 Rises=F Damp=F
 DIIS: error= 2.43D-05 at cycle   4 NSaved=   4.
 NSaved= 4 IEnMin= 4 EnMin= -2048.74352642750     IErMin= 4 ErrMin= 2.43D-05
 ErrMax= 2.43D-05  0.00D+00 EMaxC= 1.00D-01 BMatC= 5.07D-07 BMatP= 9.70D-06
 IDIUse=1 WtCom= 1.00D+00 WtEn= 0.00D+00
 Coeff-Com: -0.310D-01 0.837D-01 0.266D+00 0.681D+00
 Coeff:     -0.310D-01 0.837D-01 0.266D+00 0.681D+00
 Gap=     0.281 Goal=   None    Shift=    0.000
 RMSDP=1.44D-06 MaxDP=1.29D-04 DE=-9.34D-06 OVMax= 5.00D-04

 Cycle  10  Pass 1  IDiag  1:
 RMSU=  1.29D-06    CP:  1.00D+00  1.05D+00  8.02D-01  1.10D+00
 E= -2048.74352726396     Delta-E=       -0.000000836459 Rises=F Damp=F
 DIIS: error= 1.33D-05 at cycle   5 NSaved=   5.
 NSaved= 5 IEnMin= 5 EnMin= -2048.74352726396     IErMin= 5 ErrMin= 1.33D-05
 ErrMax= 1.33D-05  0.00D+00 EMaxC= 1.00D-01 BMatC= 1.21D-07 BMatP= 5.07D-07
 IDIUse=1 WtCom= 1.00D+00 WtEn= 0.00D+00
 Coeff-Com: -0.379D-02-0.536D-01-0.114D+00 0.213D+00 0.959D+00
 Coeff:     -0.379D-02-0.536D-01-0.114D+00 0.213D+00 0.959D+00
 Gap=     0.281 Goal=   None    Shift=    0.000
 RMSDP=1.19D-06 MaxDP=7.17D-05 DE=-8.36D-07 OVMax= 2.40D-04

 Cycle  11  Pass 1  IDiag  1:
 RMSU=  4.90D-07    CP:  1.00D+00  1.06D+00  8.13D-01  1.37D+00  1.17D+00
 E= -2048.74352751816     Delta-E=       -0.000000254199 Rises=F Damp=F
 DIIS: error= 7.56D-06 at cycle   6 NSaved=   6.
 NSaved= 6 IEnMin= 6 EnMin= -2048.74352751816     IErMin= 6 ErrMin= 7.56D-06
 ErrMax= 7.56D-06  0.00D+00 EMaxC= 1.00D-01 BMatC= 2.89D-08 BMatP= 1.21D-07
 IDIUse=1 WtCom= 1.00D+00 WtEn= 0.00D+00
 Coeff-Com:  0.458D-02-0.446D-01-0.115D+00-0.174D-02 0.515D+00 0.641D+00
 Coeff:      0.458D-02-0.446D-01-0.115D+00-0.174D-02 0.515D+00 0.641D+00
 Gap=     0.281 Goal=   None    Shift=    0.000
 RMSDP=3.76D-07 MaxDP=3.60D-05 DE=-2.54D-07 OVMax= 1.32D-04

 Cycle  12  Pass 1  IDiag  1:
 RMSU=  1.81D-07    CP:  1.00D+00  1.06D+00  8.15D-01  1.44D+00  1.30D+00
                    CP:  9.29D-01
 E= -2048.74352756045     Delta-E=       -0.000000042295 Rises=F Damp=F
 DIIS: error= 1.74D-06 at cycle   7 NSaved=   7.
 NSaved= 7 IEnMin= 7 EnMin= -2048.74352756045     IErMin= 7 ErrMin= 1.74D-06
 ErrMax= 1.74D-06  0.00D+00 EMaxC= 1.00D-01 BMatC= 8.19D-10 BMatP= 2.89D-08
 IDIUse=1 WtCom= 1.00D+00 WtEn= 0.00D+00
 Coeff-Com:  0.119D-02-0.813D-02-0.223D-01-0.861D-02 0.666D-01 0.148D+00
 Coeff-Com:  0.823D+00
 Coeff:      0.119D-02-0.813D-02-0.223D-01-0.861D-02 0.666D-01 0.148D+00
 Coeff:      0.823D+00
 Gap=     0.281 Goal=   None    Shift=    0.000
 RMSDP=8.34D-08 MaxDP=4.84D-06 DE=-4.23D-08 OVMax= 2.27D-05

 Cycle  13  Pass 1  IDiag  1:
 RMSU=  4.95D-08    CP:  1.00D+00  1.06D+00  8.15D-01  1.45D+00  1.32D+00
                    CP:  1.01D+00  1.14D+00
 E= -2048.74352756189     Delta-E=       -0.000000001440 Rises=F Damp=F
 DIIS: error= 7.81D-07 at cycle   8 NSaved=   8.
 NSaved= 8 IEnMin= 8 EnMin= -2048.74352756189     IErMin= 8 ErrMin= 7.81D-07
 ErrMax= 7.81D-07  0.00D+00 EMaxC= 1.00D-01 BMatC= 3.27D-10 BMatP= 8.19D-10
 IDIUse=1 WtCom= 1.00D+00 WtEn= 0.00D+00
 Coeff-Com: -0.698D-03 0.859D-02 0.211D-01-0.203D-02-0.111D+00-0.102D+00
 Coeff-Com:  0.415D+00 0.771D+00
 Coeff:     -0.698D-03 0.859D-02 0.211D-01-0.203D-02-0.111D+00-0.102D+00
 Coeff:      0.415D+00 0.771D+00
 Gap=     0.281 Goal=   None    Shift=    0.000
 RMSDP=4.72D-08 MaxDP=3.06D-06 DE=-1.44D-09 OVMax= 1.14D-05

 Cycle  14  Pass 1  IDiag  1:
 RMSU=  2.73D-08    CP:  1.00D+00  1.06D+00  8.15D-01  1.45D+00  1.32D+00
                    CP:  1.06D+00  1.30D+00  1.10D+00
 E= -2048.74352756270     Delta-E=       -0.000000000806 Rises=F Damp=F
 DIIS: error= 2.63D-07 at cycle   9 NSaved=   9.
 NSaved= 9 IEnMin= 9 EnMin= -2048.74352756270     IErMin= 9 ErrMin= 2.63D-07
 ErrMax= 2.63D-07  0.00D+00 EMaxC= 1.00D-01 BMatC= 3.11D-11 BMatP= 3.27D-10
 IDIUse=1 WtCom= 1.00D+00 WtEn= 0.00D+00
 Coeff-Com: -0.424D-03 0.454D-02 0.114D-01 0.281D-03-0.537D-01-0.597D-01
 Coeff-Com:  0.811D-01 0.307D+00 0.709D+00
 Coeff:     -0.424D-03 0.454D-02 0.114D-01 0.281D-03-0.537D-01-0.597D-01
 Coeff:      0.811D-01 0.307D+00 0.709D+00
 Gap=     0.281 Goal=   None    Shift=    0.000
 RMSDP=1.37D-08 MaxDP=9.10D-07 DE=-8.06D-10 OVMax= 3.48D-06

 Cycle  15  Pass 1  IDiag  1:
 RMSU=  9.22D-09    CP:  1.00D+00  1.06D+00  8.15D-01  1.45D+00  1.32D+00
                    CP:  1.07D+00  1.33D+00  1.23D+00  1.12D+00
 E= -2048.74352756268     Delta-E=        0.000000000018 Rises=F Damp=F
 DIIS: error= 9.60D-08 at cycle  10 NSaved=  10.
 NSaved=10 IEnMin= 9 EnMin= -2048.74352756270     IErMin=10 ErrMin= 9.60D-08
 ErrMax= 9.60D-08  0.00D+00 EMaxC= 1.00D-01 BMatC= 5.21D-12 BMatP= 3.11D-11
 IDIUse=1 WtCom= 1.00D+00 WtEn= 0.00D+00
 Coeff-Com:  0.439D-06-0.250D-03-0.531D-03 0.204D-03 0.474D-02 0.767D-03
 Coeff-Com: -0.522D-01-0.545D-01 0.265D+00 0.837D+00
 Coeff:      0.439D-06-0.250D-03-0.531D-03 0.204D-03 0.474D-02 0.767D-03
 Coeff:     -0.522D-01-0.545D-01 0.265D+00 0.837D+00
 Gap=     0.281 Goal=   None    Shift=    0.000
 RMSDP=6.76D-09 MaxDP=3.77D-07 DE= 1.82D-11 OVMax= 1.38D-06

 SCF Done:  E(RwB97XD) =  -2048.74352756     A.U. after   15 cycles
            NFock= 15  Conv=0.68D-08     -V/T= 2.0054
 KE= 2.037822994082D+03 PE=-1.596395590935D+04 EE= 6.285759540844D+03
 Leave Link  502 at Sat Jan 20 10:42:40 2018, MaxMem=  4294967296 cpu:           22246.2 elap:             718.9
 (Enter /share/apps/g16/l601.exe)
 Copying SCF densities to generalized density rwf, IOpCl= 0 IROHF=0.

 **********************************************************************

            Population analysis using the SCF density.

 **********************************************************************

 Orbital symmetries:
       Occupied  (A) (A) (A) (A) (A) (A) (A) (A) (A) (A) (A) (A)
                 (A) (A) (A) (A) (A) (A) (A) (A) (A) (A) (A) (A)
                 (A) (A) (A) (A) (A) (A) (A) (A) (A) (A) (A) (A)
                 (A) (A) (A) (A) (A) (A) (A) (A) (A) (A) (A) (A)
                 (A) (A) (A) (A) (A) (A) (A) (A) (A) (A) (A) (A)
                 (A) (A) (A) (A) (A) (A) (A) (A) (A) (A) (A) (A)
                 (A) (A) (A) (A) (A) (A) (A) (A) (A) (A) (A) (A)
                 (A) (A) (A) (A) (A) (A) (A) (A) (A) (A) (A) (A)
                 (A) (A) (A) (A) (A) (A) (A) (A) (A) (A) (A) (A)
                 (A) (A) (A) (A) (A) (A) (A) (A) (A) (A) (A) (A)
                 (A) (A) (A) (A) (A) (A) (A) (A) (A) (A) (A) (A)
                 (A) (A) (A) (A) (A) (A) (A) (A) (A) (A) (A) (A)
                 (A) (A) (A) (A) (A) (A) (A) (A) (A) (A)
       Virtual   (A) (A) (A) (A) (A) (A) (A) (A) (A) (A) (A) (A)
                 (A) (A) (A) (A) (A) (A) (A) (A) (A) (A) (A) (A)
                 (A) (A) (A) (A) (A) (A) (A) (A) (A) (A) (A) (A)
                 (A) (A) (A) (A) (A) (A) (A) (A) (A) (A) (A) (A)
                 (A) (A) (A) (A) (A) (A) (A) (A) (A) (A) (A) (A)
                 (A) (A) (A) (A) (A) (A) (A) (A) (A) (A) (A) (A)
                 (A) (A) (A) (A) (A) (A) (A) (A) (A) (A) (A) (A)
                 (A) (A) (A) (A) (A) (A) (A) (A) (A) (A) (A) (A)
                 (A) (A) (A) (A) (A) (A) (A) (A) (A) (A) (A) (A)
                 (A) (A) (A) (A) (A) (A) (A) (A) (A) (A) (A) (A)
                 (A) (A) (A) (A) (A) (A) (A) (A) (A) (A) (A) (A)
                 (A) (A) (A) (A) (A) (A) (A) (A) (A) (A) (A) (A)
                 (A) (A) (A) (A) (A) (A) (A) (A) (A) (A) (A) (A)
                 (A) (A) (A) (A) (A) (A) (A) (A) (A) (A) (A) (A)
                 (A) (A) (A) (A) (A) (A) (A) (A) (A) (A) (A) (A)
                 (A) (A) (A) (A) (A) (A) (A) (A) (A) (A) (A) (A)
                 (A) (A) (A) (A) (A) (A) (A) (A) (A) (A) (A) (A)
                 (A) (A) (A) (A) (A) (A) (A) (A) (A) (A) (A) (A)
                 (A) (A) (A) (A) (A) (A) (A) (A) (A) (A) (A) (A)
                 (A) (A) (A) (A) (A) (A) (A) (A) (A) (A) (A) (A)
                 (A) (A) (A) (A) (A) (A) (A) (A) (A) (A) (A) (A)
                 (A) (A) (A) (A) (A) (A) (A) (A) (A) (A) (A) (A)
                 (A) (A) (A) (A) (A) (A) (A) (A) (A) (A) (A) (A)
                 (A) (A) (A) (A) (A) (A) (A) (A) (A) (A) (A) (A)
                 (A) (A) (A) (A) (A) (A) (A) (A) (A) (A) (A) (A)
                 (A) (A) (A) (A) (A) (A) (A) (A) (A) (A) (A) (A)
                 (A) (A) (A) (A) (A) (A) (A) (A) (A) (A) (A) (A)
                 (A) (A) (A) (A) (A) (A) (A) (A) (A) (A) (A) (A)
                 (A) (A) (A) (A) (A) (A) (A) (A) (A) (A) (A) (A)
                 (A) (A) (A) (A) (A) (A) (A) (A) (A) (A) (A) (A)
                 (A) (A) (A) (A) (A) (A) (A) (A) (A) (A) (A) (A)
                 (A) (A) (A) (A) (A) (A) (A) (A) (A) (A) (A) (A)
                 (A) (A) (A) (A) (A) (A) (A) (A) (A) (A) (A) (A)
                 (A) (A) (A) (A) (A) (A) (A) (A) (A) (A) (A) (A)
                 (A) (A) (A) (A) (A) (A) (A) (A) (A) (A) (A) (A)
                 (A) (A) (A) (A) (A) (A) (A) (A) (A) (A) (A) (A)
                 (A) (A) (A) (A) (A) (A) (A) (A) (A) (A) (A) (A)
                 (A) (A) (A) (A) (A) (A) (A) (A) (A) (A) (A) (A)
                 (A) (A) (A) (A) (A) (A) (A) (A) (A) (A) (A) (A)
                 (A) (A) (A) (A) (A) (A) (A) (A) (A) (A) (A) (A)
                 (A) (A) (A) (A) (A) (A) (A) (A) (A) (A) (A) (A)
                 (A) (A) (A) (A) (A) (A) (A) (A) (A) (A) (A) (A)
                 (A) (A) (A) (A) (A) (A) (A) (A) (A) (A) (A) (A)
                 (A) (A) (A) (A) (A) (A) (A) (A) (A) (A) (A) (A)
                 (A) (A) (A) (A) (A) (A) (A) (A) (A) (A) (A) (A)
                 (A) (A) (A) (A) (A) (A) (A) (A) (A) (A) (A) (A)
                 (A) (A) (A) (A) (A) (A) (A) (A) (A) (A) (A) (A)
                 (A) (A) (A) (A) (A) (A) (A) (A) (A) (A) (A) (A)
                 (A) (A) (A) (A) (A) (A) (A)
 The electronic state is 1-A.
 Alpha  occ. eigenvalues --  -19.25721 -19.21833 -19.20451 -14.52371 -14.52094
 Alpha  occ. eigenvalues --  -14.49511 -14.48297 -14.47720 -14.47485 -14.46496
 Alpha  occ. eigenvalues --  -14.46093 -14.45081 -14.43664 -14.43615 -14.42956
 Alpha  occ. eigenvalues --  -14.42060 -14.41757 -14.41746 -14.40893 -14.40545
 Alpha  occ. eigenvalues --  -10.45373 -10.40811 -10.39955 -10.39377 -10.37940
 Alpha  occ. eigenvalues --  -10.37632 -10.37588 -10.36737 -10.36147 -10.35554
 Alpha  occ. eigenvalues --  -10.35276 -10.34715 -10.34071 -10.34069 -10.33929
 Alpha  occ. eigenvalues --  -10.33797 -10.33037 -10.32056 -10.31730 -10.30848
 Alpha  occ. eigenvalues --  -10.29818 -10.29199 -10.27717  -1.19400  -1.14808
 Alpha  occ. eigenvalues --   -1.12981  -1.12862  -1.12064  -1.10265  -1.09245
 Alpha  occ. eigenvalues --   -1.08676  -1.08246  -1.05745  -1.04222  -1.02388
 Alpha  occ. eigenvalues --   -1.01204  -1.00608  -0.99319  -0.98273  -0.97664
 Alpha  occ. eigenvalues --   -0.96260  -0.96137  -0.93421  -0.90887  -0.87318
 Alpha  occ. eigenvalues --   -0.85755  -0.84670  -0.83833  -0.83632  -0.83028
 Alpha  occ. eigenvalues --   -0.81844  -0.78730  -0.76628  -0.74454  -0.74241
 Alpha  occ. eigenvalues --   -0.73599  -0.73361  -0.73201  -0.71792  -0.70021
 Alpha  occ. eigenvalues --   -0.67056  -0.66998  -0.66429  -0.66327  -0.64343
 Alpha  occ. eigenvalues --   -0.63908  -0.63426  -0.63399  -0.62499  -0.61379
 Alpha  occ. eigenvalues --   -0.61133  -0.60926  -0.60242  -0.59387  -0.59199
 Alpha  occ. eigenvalues --   -0.58353  -0.57953  -0.57387  -0.57221  -0.56380
 Alpha  occ. eigenvalues --   -0.56041  -0.55827  -0.55134  -0.54766  -0.54250
 Alpha  occ. eigenvalues --   -0.54068  -0.53276  -0.53173  -0.52773  -0.52555
 Alpha  occ. eigenvalues --   -0.52447  -0.52377  -0.52252  -0.51374  -0.50872
 Alpha  occ. eigenvalues --   -0.49829  -0.49780  -0.49300  -0.49088  -0.48822
 Alpha  occ. eigenvalues --   -0.48463  -0.48256  -0.47967  -0.47643  -0.47259
 Alpha  occ. eigenvalues --   -0.47151  -0.45452  -0.45363  -0.44278  -0.43551
 Alpha  occ. eigenvalues --   -0.41880  -0.40449  -0.39372  -0.37958  -0.37390
 Alpha  occ. eigenvalues --   -0.37315  -0.36996  -0.36917  -0.35701  -0.34468
 Alpha  occ. eigenvalues --   -0.34238  -0.33988  -0.33864  -0.33328  -0.33022
 Alpha  occ. eigenvalues --   -0.32460  -0.31989  -0.31794  -0.31654  -0.31573
 Alpha  occ. eigenvalues --   -0.31141  -0.29271  -0.26446  -0.24959
 Alpha virt. eigenvalues --    0.03178   0.04543   0.07197   0.07579   0.08316
 Alpha virt. eigenvalues --    0.09007   0.09999   0.10382   0.11005   0.11699
 Alpha virt. eigenvalues --    0.13168   0.13502   0.14317   0.14648   0.14806
 Alpha virt. eigenvalues --    0.15293   0.15984   0.17348   0.18140   0.18216
 Alpha virt. eigenvalues --    0.19004   0.19106   0.19227   0.19998   0.20232
 Alpha virt. eigenvalues --    0.20602   0.21067   0.21169   0.21352   0.22099
 Alpha virt. eigenvalues --    0.22814   0.23357   0.23420   0.23946   0.24441
 Alpha virt. eigenvalues --    0.24478   0.24740   0.25361   0.25500   0.25861
 Alpha virt. eigenvalues --    0.25950   0.26806   0.27926   0.28171   0.28409
 Alpha virt. eigenvalues --    0.28862   0.29071   0.29738   0.30439   0.30539
 Alpha virt. eigenvalues --    0.31198   0.31861   0.32618   0.33409   0.33451
 Alpha virt. eigenvalues --    0.33899   0.34488   0.35350   0.36218   0.36612
 Alpha virt. eigenvalues --    0.36922   0.37756   0.38238   0.38967   0.39469
 Alpha virt. eigenvalues --    0.40060   0.40475   0.40898   0.41328   0.41690
 Alpha virt. eigenvalues --    0.42073   0.42550   0.42936   0.44151   0.44328
 Alpha virt. eigenvalues --    0.44901   0.45196   0.45935   0.46275   0.47149
 Alpha virt. eigenvalues --    0.47805   0.48271   0.49233   0.49342   0.49647
 Alpha virt. eigenvalues --    0.49730   0.50538   0.50642   0.51059   0.51760
 Alpha virt. eigenvalues --    0.51948   0.52007   0.52387   0.53476   0.53701
 Alpha virt. eigenvalues --    0.54112   0.54415   0.54913   0.55341   0.55422
 Alpha virt. eigenvalues --    0.55875   0.56193   0.56954   0.57096   0.57390
 Alpha virt. eigenvalues --    0.57655   0.58523   0.59241   0.59480   0.59634
 Alpha virt. eigenvalues --    0.60322   0.60774   0.61013   0.61334   0.62048
 Alpha virt. eigenvalues --    0.62159   0.62595   0.63132   0.63460   0.63858
 Alpha virt. eigenvalues --    0.64102   0.64728   0.64999   0.65315   0.65799
 Alpha virt. eigenvalues --    0.66005   0.66262   0.66679   0.67045   0.67686
 Alpha virt. eigenvalues --    0.68297   0.68409   0.69135   0.69542   0.70030
 Alpha virt. eigenvalues --    0.70224   0.71078   0.71569   0.72273   0.72971
 Alpha virt. eigenvalues --    0.73258   0.73418   0.73626   0.73911   0.74480
 Alpha virt. eigenvalues --    0.74738   0.74991   0.75322   0.75563   0.75829
 Alpha virt. eigenvalues --    0.76021   0.76325   0.76755   0.77525   0.77584
 Alpha virt. eigenvalues --    0.78190   0.78723   0.78843   0.79268   0.79380
 Alpha virt. eigenvalues --    0.79694   0.80009   0.80456   0.80963   0.81403
 Alpha virt. eigenvalues --    0.81693   0.82371   0.82593   0.82943   0.83188
 Alpha virt. eigenvalues --    0.84062   0.84295   0.84667   0.84805   0.85652
 Alpha virt. eigenvalues --    0.86105   0.86315   0.87151   0.87419   0.87691
 Alpha virt. eigenvalues --    0.88580   0.88623   0.89199   0.89941   0.90511
 Alpha virt. eigenvalues --    0.90943   0.91049   0.91472   0.92669   0.92959
 Alpha virt. eigenvalues --    0.93426   0.93707   0.93910   0.94237   0.94376
 Alpha virt. eigenvalues --    0.95406   0.96034   0.96094   0.96585   0.97161
 Alpha virt. eigenvalues --    0.97984   0.98641   0.98765   0.99192   0.99482
 Alpha virt. eigenvalues --    1.00175   1.00713   1.00911   1.01350   1.01767
 Alpha virt. eigenvalues --    1.02015   1.02681   1.03172   1.03685   1.04331
 Alpha virt. eigenvalues --    1.04575   1.04775   1.05353   1.05932   1.06562
 Alpha virt. eigenvalues --    1.06966   1.07529   1.07864   1.08442   1.09164
 Alpha virt. eigenvalues --    1.09616   1.10316   1.10688   1.11224   1.11471
 Alpha virt. eigenvalues --    1.12386   1.12591   1.12947   1.13224   1.14141
 Alpha virt. eigenvalues --    1.14355   1.14573   1.15278   1.15908   1.16567
 Alpha virt. eigenvalues --    1.17016   1.17537   1.17675   1.18019   1.18582
 Alpha virt. eigenvalues --    1.19196   1.19367   1.19937   1.20128   1.20814
 Alpha virt. eigenvalues --    1.20945   1.21182   1.21242   1.21870   1.22068
 Alpha virt. eigenvalues --    1.22613   1.23354   1.23732   1.23995   1.24150
 Alpha virt. eigenvalues --    1.24354   1.25388   1.25639   1.25941   1.26670
 Alpha virt. eigenvalues --    1.27149   1.27661   1.28471   1.29096   1.29631
 Alpha virt. eigenvalues --    1.29919   1.30574   1.30957   1.31809   1.31941
 Alpha virt. eigenvalues --    1.32275   1.33582   1.33914   1.34610   1.34704
 Alpha virt. eigenvalues --    1.35649   1.36489   1.37433   1.38075   1.38308
 Alpha virt. eigenvalues --    1.38690   1.39542   1.40429   1.40828   1.40906
 Alpha virt. eigenvalues --    1.41628   1.42934   1.44124   1.44586   1.45309
 Alpha virt. eigenvalues --    1.46102   1.46381   1.48143   1.48921   1.49012
 Alpha virt. eigenvalues --    1.49829   1.50592   1.51046   1.52358   1.52394
 Alpha virt. eigenvalues --    1.52650   1.52920   1.54121   1.54730   1.55353
 Alpha virt. eigenvalues --    1.55764   1.56415   1.56929   1.57291   1.58482
 Alpha virt. eigenvalues --    1.59093   1.59668   1.60271   1.61084   1.61987
 Alpha virt. eigenvalues --    1.62761   1.63371   1.64005   1.64085   1.64934
 Alpha virt. eigenvalues --    1.65083   1.66217   1.66351   1.67251   1.67499
 Alpha virt. eigenvalues --    1.67847   1.68196   1.68371   1.69358   1.69686
 Alpha virt. eigenvalues --    1.70565   1.70876   1.70993   1.71320   1.72066
 Alpha virt. eigenvalues --    1.72445   1.72827   1.73558   1.73818   1.73942
 Alpha virt. eigenvalues --    1.74504   1.74671   1.75396   1.75571   1.76038
 Alpha virt. eigenvalues --    1.76112   1.76546   1.76945   1.77826   1.78034
 Alpha virt. eigenvalues --    1.78562   1.78964   1.79128   1.79352   1.79973
 Alpha virt. eigenvalues --    1.80172   1.80395   1.80478   1.80863   1.81141
 Alpha virt. eigenvalues --    1.81426   1.82125   1.82616   1.83258   1.83554
 Alpha virt. eigenvalues --    1.84070   1.85154   1.85274   1.85680   1.85935
 Alpha virt. eigenvalues --    1.86457   1.87087   1.87664   1.87968   1.88250
 Alpha virt. eigenvalues --    1.88533   1.88698   1.89049   1.90061   1.90412
 Alpha virt. eigenvalues --    1.91280   1.91474   1.91663   1.92512   1.92538
 Alpha virt. eigenvalues --    1.93034   1.93154   1.94013   1.94581   1.94925
 Alpha virt. eigenvalues --    1.95391   1.96461   1.96979   1.97927   1.99046
 Alpha virt. eigenvalues --    1.99716   2.00489   2.01181   2.01940   2.02069
 Alpha virt. eigenvalues --    2.02817   2.02999   2.03364   2.04100   2.04818
 Alpha virt. eigenvalues --    2.05236   2.06305   2.06738   2.07559   2.08545
 Alpha virt. eigenvalues --    2.08798   2.09617   2.10037   2.10425   2.10536
 Alpha virt. eigenvalues --    2.11092   2.11755   2.12906   2.13592   2.14577
 Alpha virt. eigenvalues --    2.15276   2.15361   2.17520   2.18223   2.19015
 Alpha virt. eigenvalues --    2.19463   2.19890   2.20885   2.21157   2.21300
 Alpha virt. eigenvalues --    2.22530   2.22663   2.23183   2.24254   2.24770
 Alpha virt. eigenvalues --    2.25162   2.25790   2.26823   2.27126   2.27170
 Alpha virt. eigenvalues --    2.28330   2.28843   2.29218   2.29276   2.30280
 Alpha virt. eigenvalues --    2.30757   2.31366   2.32062   2.32077   2.33042
 Alpha virt. eigenvalues --    2.33479   2.33954   2.34413   2.34766   2.35431
 Alpha virt. eigenvalues --    2.36005   2.36419   2.36754   2.37761   2.38201
 Alpha virt. eigenvalues --    2.38908   2.39419   2.39474   2.41213   2.41571
 Alpha virt. eigenvalues --    2.41668   2.42414   2.43391   2.43480   2.43852
 Alpha virt. eigenvalues --    2.45422   2.45641   2.45865   2.46664   2.47012
 Alpha virt. eigenvalues --    2.47988   2.48634   2.49803   2.50346   2.52322
 Alpha virt. eigenvalues --    2.52669   2.54804   2.55617   2.56442   2.56898
 Alpha virt. eigenvalues --    2.57517   2.58186   2.58995   2.60212   2.61092
 Alpha virt. eigenvalues --    2.62450   2.62839   2.63026   2.63361   2.64093
 Alpha virt. eigenvalues --    2.65066   2.65793   2.65935   2.66377   2.66738
 Alpha virt. eigenvalues --    2.67815   2.68096   2.68638   2.69283   2.70881
 Alpha virt. eigenvalues --    2.71140   2.71887   2.72311   2.72613   2.73579
 Alpha virt. eigenvalues --    2.73891   2.75052   2.75341   2.75547   2.77281
 Alpha virt. eigenvalues --    2.77893   2.79167   2.79354   2.79515   2.80295
 Alpha virt. eigenvalues --    2.80659   2.81131   2.81348   2.81767   2.82033
 Alpha virt. eigenvalues --    2.82956   2.83292   2.83662   2.84463   2.84969
 Alpha virt. eigenvalues --    2.85626   2.86161   2.86940   2.87114   2.87612
 Alpha virt. eigenvalues --    2.88875   2.89278   2.89986   2.93589   2.94377
 Alpha virt. eigenvalues --    2.95740   2.96162   2.97592   2.98734   2.99109
 Alpha virt. eigenvalues --    3.00539   3.01549   3.02329   3.05321   3.06557
 Alpha virt. eigenvalues --    3.07593   3.09981   3.10955   3.13696   3.14786
 Alpha virt. eigenvalues --    3.15839   3.16368   3.17035   3.18666   3.21677
 Alpha virt. eigenvalues --    3.22598   3.23443   3.23658   3.24048   3.28027
 Alpha virt. eigenvalues --    3.45467   3.47480   3.48467   3.49437   3.50539
 Alpha virt. eigenvalues --    3.53195   3.54665   3.56622   3.58209   3.60439
 Alpha virt. eigenvalues --    3.63809   3.70800   3.75284
          Condensed to atoms (all electrons):
 Mulliken charges:
               1
     1  N   -0.310977
     2  C    0.178851
     3  C    0.064406
     4  N   -0.255698
     5  C    0.131402
     6  H    0.028365
     7  N   -0.277702
     8  C    0.135047
     9  H    0.016060
    10  N   -0.288045
    11  C    0.226646
    12  C    0.099786
    13  N   -0.046043
    14  H    0.109421
    15  H    0.089172
    16  H    0.028409
    17  H    0.034386
    18  H    0.025317
    19  N   -0.288220
    20  C    0.236151
    21  C    0.179925
    22  N   -0.097302
    23  H    0.113052
    24  H    0.112528
    25  N   -0.297055
    26  C    0.209090
    27  N   -0.141035
    28  H    0.130244
    29  C    0.155275
    30  O   -0.323698
    31  C    0.009994
    32  N   -0.221356
    33  C    0.121397
    34  H    0.019458
    35  H    0.020029
    36  H    0.024930
    37  H    0.019397
    38  H    0.040943
    39  H    0.062551
    40  H    0.074194
    41  H    0.028555
    42  C   -0.109446
    43  O   -0.267727
    44  C    0.173691
    45  H    0.132999
    46  N   -0.126823
    47  O   -0.339392
    48  C    0.341793
    49  H    0.045200
    50  C    0.180328
    51  C    0.041254
    52  N   -0.279429
    53  H    0.035099
    54  H    0.035320
    55  H    0.015750
    56  H    0.123163
    57  H    0.119330
    58  N   -0.059325
    59  C    0.117091
    60  C    0.237514
    61  N   -0.282082
    62  H    0.037436
    63  C    0.162097
    64  N   -0.304547
    65  H    0.039433
    66  C    0.102279
    67  N   -0.245275
    68  C    0.009950
    69  C    0.182202
    70  N   -0.295726
 Sum of Mulliken charges =  -0.00000
 Mulliken charges with hydrogens summed into heavy atoms:
               1
     1  N   -0.310977
     2  C    0.266963
     3  C    0.064406
     4  N   -0.255698
     5  C    0.159766
     7  N   -0.277702
     8  C    0.151107
    10  N   -0.288045
    11  C    0.226646
    12  C    0.099786
    13  N    0.152550
    19  N   -0.288220
    20  C    0.236151
    21  C    0.244281
    22  N    0.128277
    25  N   -0.297055
    26  C    0.209090
    27  N   -0.010791
    29  C    0.155275
    30  O   -0.323698
    31  C    0.009994
    32  N   -0.221356
    33  C    0.140854
    42  C   -0.080891
    43  O   -0.267727
    44  C    0.173691
    46  N    0.006176
    47  O   -0.339392
    48  C    0.341793
    50  C    0.225528
    51  C    0.218941
    52  N   -0.279429
    58  N    0.183168
    59  C    0.117091
    60  C    0.237514
    61  N   -0.282082
    63  C    0.199533
    64  N   -0.304547
    66  C    0.141712
    67  N   -0.245275
    68  C    0.009950
    69  C    0.268370
    70  N   -0.295726
 Electronic spatial extent (au):  <R**2>=          22238.9752
 Charge=              0.0000 electrons
 Dipole moment (field-independent basis, Debye):
    X=             -5.8659    Y=              6.0072    Z=             -4.0387  Tot=              9.3170
 Quadrupole moment (field-independent basis, Debye-Ang):
   XX=           -144.3616   YY=           -226.7696   ZZ=           -258.7745
   XY=            -12.2675   XZ=              8.7791   YZ=              8.9242
 Traceless Quadrupole moment (field-independent basis, Debye-Ang):
   XX=             65.6070   YY=            -16.8010   ZZ=            -48.8059
   XY=            -12.2675   XZ=              8.7791   YZ=              8.9242
 Octapole moment (field-independent basis, Debye-Ang**2):
  XXX=             55.2659  YYY=             63.1602  ZZZ=            -19.5139  XYY=            -55.3869
  XXY=             55.3789  XXZ=             30.6697  XZZ=            -31.1522  YZZ=             44.3446
  YYZ=            -64.0772  XYZ=             35.0753
 Hexadecapole moment (field-independent basis, Debye-Ang**3):
 XXXX=         -15744.5348 YYYY=          -4196.3207 ZZZZ=          -3382.5146 XXXY=           -573.3363
 XXXZ=             18.8210 YYYX=            -15.3518 YYYZ=             70.7028 ZZZX=             52.2942
 ZZZY=              3.5768 XXYY=          -4002.3111 XXZZ=          -4056.3574 YYZZ=          -1358.2486
 XXYZ=            -78.9264 YYXZ=            177.0883 ZZXY=            -95.7926
 N-N= 5.591629846861D+03 E-N=-1.596395590495D+04  KE= 2.037822994082D+03
 No NMR shielding tensors so no spin-rotation constants.
 Leave Link  601 at Sat Jan 20 10:42:42 2018, MaxMem=  4294967296 cpu:              56.7 elap:               2.0
 (Enter /share/apps/g16/l9999.exe)
 1\1\GINC-COMPUTE-0-3\SP\RwB97XD\CC-pVDZ\C23H27N17O3\SATYA\20-Jan-2018\
 0\\#p wb97xd/cc-pvdz sp scf=(maxcycles=20)\\Base pair stacking\\0,1\N,
 0,3.20186,6.72019,-6.8484\C,0,3.42886,8.178,-6.81283\C,0,2.26965,4.730
 43,-6.75274\N,0,3.60261,4.51944,-7.07433\C,0,4.11088,5.72664,-7.11909\
 H,0,5.15301,5.95252,-7.34688\N,0,-0.00769,4.38411,-6.24604\C,0,-0.1080
 8,5.71331,-6.1424\H,0,-1.09972,6.08647,-5.89008\N,0,0.82816,6.64637,-6
 .30289\C,0,2.00772,6.08196,-6.61032\C,0,1.19246,3.84719,-6.55657\N,0,1
 .29467,2.52057,-6.66048\H,0,2.16354,2.07975,-6.88845\H,0,0.50668,1.922
 42,-6.51408\H,0,3.75009,8.48862,-7.70754\H,0,2.5739,8.64379,-6.58658\H
 ,0,4.11725,8.39345,-6.12023\N,0,0.70156,5.8511,-3.21849\C,0,-0.12183,4
 .75549,-3.11984\C,0,0.2565,7.25885,-3.18925\N,0,-3.30267,3.40494,-2.77
 345\H,0,-3.71651,2.4966,-2.71956\H,0,-3.92116,4.18928,-2.7187\N,0,-1.4
 6498,4.78071,-2.98074\C,0,-1.97797,3.56504,-2.91286\N,0,-1.23423,2.411
 63,-2.97616\H,0,-1.71134,1.52523,-2.91597\C,0,0.14887,2.36192,-3.11911
 \O,0,0.7242,1.26759,-3.16564\C,0,0.71419,3.66029,-3.19342\N,0,2.03584,
 4.06029,-3.3354\C,0,1.97975,5.3645,-3.34529\H,0,2.84394,6.02247,-3.442
 9\H,0,0.51667,7.7102,-4.04213\H,0,-0.73684,7.29009,-3.08653\H,0,0.6851
 4,7.72975,-2.41897\H,0,-4.73643,-2.55128,-3.20516\H,0,-4.33996,-2.7085
 8,-1.49556\H,0,-4.42379,-1.1103,-2.23707\H,0,-0.33296,-4.46759,-3.4946
 7\C,0,-0.80178,-3.5035,-3.29725\O,0,1.18712,-2.258,-3.64389\C,0,-0.011
 75,-2.31259,-3.37088\H,0,-0.17745,-0.28521,-3.14592\N,0,-0.70209,-1.14
 759,-3.1036\O,0,-2.55446,0.05014,-2.56381\C,0,-2.03149,-1.02808,-2.784
 3\H,0,-2.74525,-4.29465,-2.91933\C,0,-2.10099,-3.41912,-2.98819\C,0,-4
 .15012,-2.14284,-2.39554\N,0,-2.72609,-2.22059,-2.73294\H,0,-6.63528,0
 .19378,-5.1513\H,0,-5.65907,1.18105,-4.29432\H,0,-6.13997,-0.24344,-3.
 65901\H,0,0.45134,-1.04402,-6.97151\H,0,-0.72418,-2.27992,-6.94286\N,0
 ,-0.48017,-1.32969,-6.74604\C,0,-1.35868,-0.48195,-6.20684\C,0,-3.4724
 4,0.15542,-5.31942\N,0,-3.11694,1.42578,-5.066\H,0,-1.48096,2.64628,-5
 .25189\C,0,-1.85192,1.6368,-5.42392\N,0,-0.97041,0.78904,-5.96412\H,0,
 -5.39931,-2.43788,-5.43831\C,0,-4.56961,-1.7338,-5.50772\N,0,-3.38421,
 -2.02375,-5.98566\C,0,-2.67872,-0.83459,-5.87207\C,0,-5.87639,0.22753,
 -4.50096\N,0,-4.69318,-0.43232,-5.0863\\Version=EM64L-G16RevA.03\State
 =1-A\HF=-2048.7435276\RMSD=6.761e-09\Dipole=-3.6366105,-0.4451749,0.11
 57547\Quadrupole=4.6717543,19.1056245,-23.7773788,35.3005049,-19.25224
 85,-1.6991358\PG=C01 [X(C23H27N17O3)]\\@


 LORD, MAN... WERE YE BUT WHYLES WHERE I AM, 
 THE GENTILES YE WAD NE'ER ENVY 'EM.        
 IT'S TRUE, THEY NEEDNA STARVE OR SWEAT,     
 THRO' WINTER'S CAULD OR SIMMER'S HEAT...  
 THEY'VE NAE SAIR WARK TO CRAZE THEIR BANES, 
 AND FILL AULD AGE WITH GRIPS AN' GRANES...  
                                             
 BUT HUMAN BODIES ARE SIC FOOLS              
 FOR A' THEIR COLLEGES AND SCHOOLS,           
 THAT WHEN NAE REAL ILLS PERPLEX THEM,       
 THEY MAK ENOW THEMSELVES TO VEX THEM,       
 AN' AYE THE LESS THEY HAE TO STURT THEM,    
 IN LIKE PROPORTION LESS WILL HURT THEM....  
                                             
                (ROBERT BURNS 'THE TWA DOGS')
 Job cpu time:       0 days  6 hours 21 minutes 18.5 seconds.
 Elapsed time:       0 days  0 hours 12 minutes 19.1 seconds.
 File lengths (MBytes):  RWF=    298 Int=      0 D2E=      0 Chk=     33 Scr=      1
 Normal termination of Gaussian 16 at Sat Jan 20 10:42:43 2018.
