 Entering Gaussian System, Link 0=g16
 Input=str25.-15.-0.5.com
 Output=str25.-15.-0.5.log
 Initial command:
 /share/apps/g16/l1.exe "/state/partition1/scr/Gau-29100.inp" -scrdir="/state/partition1/scr/"
 Entering Link 1 = /share/apps/g16/l1.exe PID=     29101.
  
 Copyright (c) 1988,1990,1992,1993,1995,1998,2003,2009,2016,
            Gaussian, Inc.  All Rights Reserved.
  
 This is part of the Gaussian(R) 16 program.  It is based on
 the Gaussian(R) 09 system (copyright 2009, Gaussian, Inc.),
 the Gaussian(R) 03 system (copyright 2003, Gaussian, Inc.),
 the Gaussian(R) 98 system (copyright 1998, Gaussian, Inc.),
 the Gaussian(R) 94 system (copyright 1995, Gaussian, Inc.),
 the Gaussian 92(TM) system (copyright 1992, Gaussian, Inc.),
 the Gaussian 90(TM) system (copyright 1990, Gaussian, Inc.),
 the Gaussian 88(TM) system (copyright 1988, Gaussian, Inc.),
 the Gaussian 86(TM) system (copyright 1986, Carnegie Mellon
 University), and the Gaussian 82(TM) system (copyright 1983,
 Carnegie Mellon University). Gaussian is a federally registered
 trademark of Gaussian, Inc.
  
 This software contains proprietary and confidential information,
 including trade secrets, belonging to Gaussian, Inc.
  
 This software is provided under written license and may be
 used, copied, transmitted, or stored only in accord with that
 written license.
  
 The following legend is applicable only to US Government
 contracts under FAR:
  
                    RESTRICTED RIGHTS LEGEND
  
 Use, reproduction and disclosure by the US Government is
 subject to restrictions as set forth in subparagraphs (a)
 and (c) of the Commercial Computer Software - Restricted
 Rights clause in FAR 52.227-19.
  
 Gaussian, Inc.
 340 Quinnipiac St., Bldg. 40, Wallingford CT 06492
  
  
 ---------------------------------------------------------------
 Warning -- This program may not be used in any manner that
 competes with the business of Gaussian, Inc. or will provide
 assistance to any competitor of Gaussian, Inc.  The licensee
 of this program is prohibited from giving any competitor of
 Gaussian, Inc. access to this program.  By using this program,
 the user acknowledges that Gaussian, Inc. is engaged in the
 business of creating and licensing software in the field of
 computational chemistry and represents and warrants to the
 licensee that it is not a competitor of Gaussian, Inc. and that
 it will not use this program in any manner prohibited above.
 ---------------------------------------------------------------
  

 Cite this work as:
 Gaussian 16, Revision A.03,
 M. J. Frisch, G. W. Trucks, H. B. Schlegel, G. E. Scuseria, 
 M. A. Robb, J. R. Cheeseman, G. Scalmani, V. Barone, 
 G. A. Petersson, H. Nakatsuji, X. Li, M. Caricato, A. V. Marenich, 
 J. Bloino, B. G. Janesko, R. Gomperts, B. Mennucci, H. P. Hratchian, 
 J. V. Ortiz, A. F. Izmaylov, J. L. Sonnenberg, D. Williams-Young, 
 F. Ding, F. Lipparini, F. Egidi, J. Goings, B. Peng, A. Petrone, 
 T. Henderson, D. Ranasinghe, V. G. Zakrzewski, J. Gao, N. Rega, 
 G. Zheng, W. Liang, M. Hada, M. Ehara, K. Toyota, R. Fukuda, 
 J. Hasegawa, M. Ishida, T. Nakajima, Y. Honda, O. Kitao, H. Nakai, 
 T. Vreven, K. Throssell, J. A. Montgomery, Jr., J. E. Peralta, 
 F. Ogliaro, M. J. Bearpark, J. J. Heyd, E. N. Brothers, K. N. Kudin, 
 V. N. Staroverov, T. A. Keith, R. Kobayashi, J. Normand, 
 K. Raghavachari, A. P. Rendell, J. C. Burant, S. S. Iyengar, 
 J. Tomasi, M. Cossi, J. M. Millam, M. Klene, C. Adamo, R. Cammi, 
 J. W. Ochterski, R. L. Martin, K. Morokuma, O. Farkas, 
 J. B. Foresman, and D. J. Fox, Gaussian, Inc., Wallingford CT, 2016.
 
 ******************************************
 Gaussian 16:  EM64L-G16RevA.03 25-Dec-2016
                20-Jan-2018 
 ******************************************
 %nprocshared=32
 Will use up to   32 processors via shared memory.
 %mem=32GB
 %chk=allatoms_t.chk
 ---------------------------------------
 #p wb97xd/cc-pvdz sp scf=(maxcycles=20)
 ---------------------------------------
 1/38=1,172=1/1;
 2/12=2,17=6,18=5,40=1/2;
 3/5=16,11=2,25=1,30=1,74=-58/1,2,3;
 4//1;
 5/5=2,7=20,38=5/2;
 6/7=2,8=2,9=2,10=2,28=1/1;
 99/5=1,9=1/99;
 Leave Link    1 at Sat Jan 20 14:05:18 2018, MaxMem=  4294967296 cpu:               2.7 elap:               0.1
 (Enter /share/apps/g16/l101.exe)
 ------------------
 Base pair stacking
 ------------------
 Symbolic Z-matrix:
 Charge =  0 Multiplicity = 1
 N                     2.24198   5.95312  -6.86647 
 C                     2.49595   7.40346  -6.76642 
 C                     1.30174   3.96733  -6.76692 
 N                     2.56765   3.77107  -7.29954 
 C                     3.08344   4.97529  -7.3382 
 H                     4.08319   5.21007  -7.7047 
 N                    -0.8792    3.60057  -5.9472 
 C                    -0.9408    4.91988  -5.73937 
 H                    -1.87699   5.28065  -5.31553 
 N                    -0.02387   5.85607  -5.9754 
 C                     1.08665   5.30722  -6.49496 
 C                     0.25166   3.07922  -6.47106 
 N                     0.31506   1.76248  -6.67925 
 H                     1.13242   1.33329  -7.06516 
 H                    -0.45187   1.16046  -6.4567 
 H                     2.68438   7.77378  -7.67611 
 H                     1.69248   7.8576   -6.38259 
 H                     3.28397   7.56579  -6.17256 
 N                     0.462     5.3617   -3.17285 
 C                    -0.35327   4.26542  -3.02604 
 C                     0.02472   6.76919  -3.08095 
 N                    -3.49789   2.91241  -2.44084 
 H                    -3.90826   2.00372  -2.3693 
 H                    -4.10757   3.69633  -2.32049 
 N                    -1.68012   4.28963  -2.7752 
 C                    -2.18896   3.07351  -2.68708 
 N                    -1.45617   1.9206   -2.83313 
 H                    -1.92901   1.0338   -2.74964 
 C                    -0.0899    1.87193  -3.09158 
 O                     0.47662   0.77797  -3.20582 
 C                     0.47078   3.17079  -3.18895 
 N                     1.7771    3.5718   -3.43311 
 C                     1.7239    4.87603  -3.41446 
 H                     2.57874   5.53469  -3.57163 
 H                     0.21424   7.23588  -3.94414 
 H                    -0.95655   6.79969  -2.89536 
 H                     0.51721   7.22532  -2.34054 
 H                    -4.97863  -3.03317  -2.86048 
 H                    -4.44173  -3.22242  -1.19297 
 H                    -4.58266  -1.61064  -1.8956 
 H                    -0.61969  -4.94893  -3.55046 
 C                    -1.06786  -3.9881   -3.29712 
 O                     0.88865  -2.73874  -3.78528 
 C                    -0.28349  -2.79696  -3.41448 
 H                    -0.42444  -0.77388  -3.1395 
 N                    -0.94606  -1.63628  -3.06942 
 O                    -2.74387  -0.44655  -2.35554 
 C                    -2.24397  -1.52112  -2.63845 
 H                    -2.97528  -4.78382  -2.77328 
 C                    -2.33663  -3.90792  -2.8795 
 C                    -4.3259   -2.6404   -2.09514 
 N                    -2.9351   -2.71358  -2.55126 
 H                    -7.33616  -0.61493  -4.15287 
 H                    -6.22612   0.30408  -3.3878 
 H                    -6.62983  -1.15829  -2.78565 
 H                    -0.62453  -1.76643  -7.10138 
 H                    -1.80282  -2.99402  -6.97989 
 N                    -1.51627  -2.06137  -6.75792 
 C                    -2.2897   -1.24793  -6.03593 
 C                    -4.23544  -0.661    -4.79846 
 N                    -3.82488   0.58636  -4.5157 
 H                    -2.21526   1.80672  -4.86278 
 C                    -2.62457   0.81402  -5.04517 
 N                    -1.84833   0.0006   -5.76862 
 H                    -6.20117  -3.22772  -4.80152 
 C                    -5.3797   -2.52566  -4.94722 
 N                    -4.28443  -2.78886  -5.61715 
 C                    -3.55022  -1.61491  -5.53062 
 C                    -6.4878   -0.63133  -3.6237 
 N                    -5.41698  -1.25602  -4.42439 
 
 ITRead=  0  0  0  0  0  0  0  0  0  0  0  0  0  0  0  0  0  0  0  0
 ITRead=  0  0  0  0  0  0  0  0  0  0  0  0  0  0  0  0  0  0  0  0
 ITRead=  0  0  0  0  0  0  0  0  0  0  0  0  0  0  0  0  0  0  0  0
 ITRead=  0  0  0  0  0  0  0  0  0  0
 MicOpt= -1 -1 -1 -1 -1 -1 -1 -1 -1 -1 -1 -1 -1 -1 -1 -1 -1 -1 -1 -1
 MicOpt= -1 -1 -1 -1 -1 -1 -1 -1 -1 -1 -1 -1 -1 -1 -1 -1 -1 -1 -1 -1
 MicOpt= -1 -1 -1 -1 -1 -1 -1 -1 -1 -1 -1 -1 -1 -1 -1 -1 -1 -1 -1 -1
 MicOpt= -1 -1 -1 -1 -1 -1 -1 -1 -1 -1
 NAtoms=     70 NQM=       70 NQMF=       0 NMMI=      0 NMMIF=      0
                NMic=       0 NMicF=      0.
                    Isotopes and Nuclear Properties:
 (Nuclear quadrupole moments (NQMom) in fm**2, nuclear magnetic moments (NMagM)
  in nuclear magnetons)

  Atom         1           2           3           4           5           6           7           8           9          10
 IAtWgt=          14          12          12          14          12           1          14          12           1          14
 AtmWgt=  14.0030740  12.0000000  12.0000000  14.0030740  12.0000000   1.0078250  14.0030740  12.0000000   1.0078250  14.0030740
 NucSpn=           2           0           0           2           0           1           2           0           1           2
 AtZEff=  -0.0000000  -0.0000000  -0.0000000  -0.0000000  -0.0000000  -0.0000000  -0.0000000  -0.0000000  -0.0000000  -0.0000000
 NQMom=    2.0440000   0.0000000   0.0000000   2.0440000   0.0000000   0.0000000   2.0440000   0.0000000   0.0000000   2.0440000
 NMagM=    0.4037610   0.0000000   0.0000000   0.4037610   0.0000000   2.7928460   0.4037610   0.0000000   2.7928460   0.4037610
 AtZNuc=   7.0000000   6.0000000   6.0000000   7.0000000   6.0000000   1.0000000   7.0000000   6.0000000   1.0000000   7.0000000

  Atom        11          12          13          14          15          16          17          18          19          20
 IAtWgt=          12          12          14           1           1           1           1           1          14          12
 AtmWgt=  12.0000000  12.0000000  14.0030740   1.0078250   1.0078250   1.0078250   1.0078250   1.0078250  14.0030740  12.0000000
 NucSpn=           0           0           2           1           1           1           1           1           2           0
 AtZEff=  -0.0000000  -0.0000000  -0.0000000  -0.0000000  -0.0000000  -0.0000000  -0.0000000  -0.0000000  -0.0000000  -0.0000000
 NQMom=    0.0000000   0.0000000   2.0440000   0.0000000   0.0000000   0.0000000   0.0000000   0.0000000   2.0440000   0.0000000
 NMagM=    0.0000000   0.0000000   0.4037610   2.7928460   2.7928460   2.7928460   2.7928460   2.7928460   0.4037610   0.0000000
 AtZNuc=   6.0000000   6.0000000   7.0000000   1.0000000   1.0000000   1.0000000   1.0000000   1.0000000   7.0000000   6.0000000

  Atom        21          22          23          24          25          26          27          28          29          30
 IAtWgt=          12          14           1           1          14          12          14           1          12          16
 AtmWgt=  12.0000000  14.0030740   1.0078250   1.0078250  14.0030740  12.0000000  14.0030740   1.0078250  12.0000000  15.9949146
 NucSpn=           0           2           1           1           2           0           2           1           0           0
 AtZEff=  -0.0000000  -0.0000000  -0.0000000  -0.0000000  -0.0000000  -0.0000000  -0.0000000  -0.0000000  -0.0000000  -0.0000000
 NQMom=    0.0000000   2.0440000   0.0000000   0.0000000   2.0440000   0.0000000   2.0440000   0.0000000   0.0000000   0.0000000
 NMagM=    0.0000000   0.4037610   2.7928460   2.7928460   0.4037610   0.0000000   0.4037610   2.7928460   0.0000000   0.0000000
 AtZNuc=   6.0000000   7.0000000   1.0000000   1.0000000   7.0000000   6.0000000   7.0000000   1.0000000   6.0000000   8.0000000

  Atom        31          32          33          34          35          36          37          38          39          40
 IAtWgt=          12          14          12           1           1           1           1           1           1           1
 AtmWgt=  12.0000000  14.0030740  12.0000000   1.0078250   1.0078250   1.0078250   1.0078250   1.0078250   1.0078250   1.0078250
 NucSpn=           0           2           0           1           1           1           1           1           1           1
 AtZEff=  -0.0000000  -0.0000000  -0.0000000  -0.0000000  -0.0000000  -0.0000000  -0.0000000  -0.0000000  -0.0000000  -0.0000000
 NQMom=    0.0000000   2.0440000   0.0000000   0.0000000   0.0000000   0.0000000   0.0000000   0.0000000   0.0000000   0.0000000
 NMagM=    0.0000000   0.4037610   0.0000000   2.7928460   2.7928460   2.7928460   2.7928460   2.7928460   2.7928460   2.7928460
 AtZNuc=   6.0000000   7.0000000   6.0000000   1.0000000   1.0000000   1.0000000   1.0000000   1.0000000   1.0000000   1.0000000

  Atom        41          42          43          44          45          46          47          48          49          50
 IAtWgt=           1          12          16          12           1          14          16          12           1          12
 AtmWgt=   1.0078250  12.0000000  15.9949146  12.0000000   1.0078250  14.0030740  15.9949146  12.0000000   1.0078250  12.0000000
 NucSpn=           1           0           0           0           1           2           0           0           1           0
 AtZEff=  -0.0000000  -0.0000000  -0.0000000  -0.0000000  -0.0000000  -0.0000000  -0.0000000  -0.0000000  -0.0000000  -0.0000000
 NQMom=    0.0000000   0.0000000   0.0000000   0.0000000   0.0000000   2.0440000   0.0000000   0.0000000   0.0000000   0.0000000
 NMagM=    2.7928460   0.0000000   0.0000000   0.0000000   2.7928460   0.4037610   0.0000000   0.0000000   2.7928460   0.0000000
 AtZNuc=   1.0000000   6.0000000   8.0000000   6.0000000   1.0000000   7.0000000   8.0000000   6.0000000   1.0000000   6.0000000

  Atom        51          52          53          54          55          56          57          58          59          60
 IAtWgt=          12          14           1           1           1           1           1          14          12          12
 AtmWgt=  12.0000000  14.0030740   1.0078250   1.0078250   1.0078250   1.0078250   1.0078250  14.0030740  12.0000000  12.0000000
 NucSpn=           0           2           1           1           1           1           1           2           0           0
 AtZEff=  -0.0000000  -0.0000000  -0.0000000  -0.0000000  -0.0000000  -0.0000000  -0.0000000  -0.0000000  -0.0000000  -0.0000000
 NQMom=    0.0000000   2.0440000   0.0000000   0.0000000   0.0000000   0.0000000   0.0000000   2.0440000   0.0000000   0.0000000
 NMagM=    0.0000000   0.4037610   2.7928460   2.7928460   2.7928460   2.7928460   2.7928460   0.4037610   0.0000000   0.0000000
 AtZNuc=   6.0000000   7.0000000   1.0000000   1.0000000   1.0000000   1.0000000   1.0000000   7.0000000   6.0000000   6.0000000

  Atom        61          62          63          64          65          66          67          68          69          70
 IAtWgt=          14           1          12          14           1          12          14          12          12          14
 AtmWgt=  14.0030740   1.0078250  12.0000000  14.0030740   1.0078250  12.0000000  14.0030740  12.0000000  12.0000000  14.0030740
 NucSpn=           2           1           0           2           1           0           2           0           0           2
 AtZEff=  -0.0000000  -0.0000000  -0.0000000  -0.0000000  -0.0000000  -0.0000000  -0.0000000  -0.0000000  -0.0000000  -0.0000000
 NQMom=    2.0440000   0.0000000   0.0000000   2.0440000   0.0000000   0.0000000   2.0440000   0.0000000   0.0000000   2.0440000
 NMagM=    0.4037610   2.7928460   0.0000000   0.4037610   2.7928460   0.0000000   0.4037610   0.0000000   0.0000000   0.4037610
 AtZNuc=   7.0000000   1.0000000   6.0000000   7.0000000   1.0000000   6.0000000   7.0000000   6.0000000   6.0000000   7.0000000
 Leave Link  101 at Sat Jan 20 14:05:18 2018, MaxMem=  4294967296 cpu:               7.7 elap:               0.3
 (Enter /share/apps/g16/l202.exe)
 Stoichiometry    C23H27N17O3
 Framework group  C1[X(C23H27N17O3)]
 Deg. of freedom   204
 Full point group                 C1      NOp   1
 Largest Abelian subgroup         C1      NOp   1
 Largest concise Abelian subgroup C1      NOp   1
                         Standard orientation:                         
 ---------------------------------------------------------------------
 Center     Atomic      Atomic             Coordinates (Angstroms)
 Number     Number       Type             X           Y           Z
 ---------------------------------------------------------------------
      1          7           0        6.045806   -1.188313   -0.845324
      2          6           0        7.373388   -0.543701   -0.845231
      3          6           0        3.880022   -1.550759   -0.969158
      4          7           0        4.464233   -2.779470   -0.697685
      5          6           0        5.745654   -2.511931   -0.633949
      6          1           0        6.523722   -3.249146   -0.433780
      7          7           0        2.300820    0.144452   -1.411123
      8          6           0        3.336557    0.987716   -1.472136
      9          1           0        3.079706    2.025379   -1.680772
     10          7           0        4.635861    0.742770   -1.314867
     11          6           0        4.842311   -0.560441   -1.062971
     12          6           0        2.541563   -1.160165   -1.155984
     13          7           0        1.508972   -2.003471   -1.094689
     14          1           0        1.640425   -2.977747   -0.908370
     15          1           0        0.569298   -1.690319   -1.232844
     16          1           0        7.946205   -0.957074   -1.553173
     17          1           0        7.270365    0.433306   -1.029560
     18          1           0        7.806966   -0.668910    0.047141
     19          7           0        3.961729    1.644871    1.343426
     20          6           0        2.596880    1.690817    1.191358
     21          6           0        4.899040    2.723279    0.970371
     22          7           0       -0.261987    3.386501    0.184746
     23          1           0       -1.247537    3.221171    0.160328
     24          1           0        0.058988    4.267748   -0.163251
     25          7           0        1.888446    2.720554    0.679692
     26          6           0        0.591631    2.468352    0.662474
     27          7           0        0.029582    1.297890    1.111511
     28          1           0       -0.971964    1.192001    1.059975
     29          6           0        0.739203    0.225023    1.641845
     30          8           0        0.135155   -0.786868    2.018603
     31          6           0        2.133705    0.481185    1.666828
     32          7           0        3.186590   -0.308271    2.108516
     33          6           0        4.248450    0.421231    1.897627
     34          1           0        5.268931    0.113862    2.128775
     35          1           0        5.544691    2.384376    0.286929
     36          1           0        4.385656    3.491470    0.590128
     37          1           0        5.399943    3.026771    1.780184
     38          1           0       -5.928907    1.031841   -0.060639
     39          1           0       -6.114561    1.458497    1.638821
     40          1           0       -4.708929    2.025555    0.736585
     41          1           0       -5.164308   -3.243220    2.009579
     42          6           0       -4.636183   -2.306311    1.832051
     43          8           0       -2.493451   -3.213280    2.293826
     44          6           0       -3.213131   -2.266299    1.977468
     45          1           0       -1.640870   -0.965395    1.822623
     46          7           0       -2.644645   -1.033088    1.729968
     47          8           0       -2.703372    1.167248    1.171152
     48          6           0       -3.294772    0.120534    1.369329
     49          1           0       -6.380093   -1.175173    1.357567
     50          6           0       -5.298183   -1.197530    1.481374
     51          6           0       -5.403131    1.208537    0.865864
     52          7           0       -4.665438    0.001714    1.249420
     53          1           0       -4.881411    3.186379   -2.769297
     54          1           0       -3.679296    3.334270   -1.676068
     55          1           0       -5.221849    3.155245   -1.173500
     56          1           0       -1.854303   -3.452297   -1.416428
     57          1           0       -3.511433   -3.246763   -1.765399
     58          7           0       -2.622974   -2.830819   -1.568299
     59          6           0       -2.471071   -1.506143   -1.510781
     60          6           0       -3.206256    0.754016   -1.624376
     61          7           0       -2.001367    1.284636   -1.357719
     62          1           0       -0.087186    0.668357   -0.961824
     63          6           0       -1.096354    0.323684   -1.183263
     64          7           0       -1.246529   -1.003627   -1.240478
     65          1           0       -6.367970    0.715754   -2.298362
     66          6           0       -5.330396    0.459466   -2.082291
     67          7           0       -4.865119   -0.763425   -2.006456
     68          6           0       -3.519400   -0.590960   -1.716615
     69          6           0       -4.554729    2.892924   -1.870871
     70          7           0       -4.381084    1.427400   -1.861751
 ---------------------------------------------------------------------
 Rotational constants (GHZ):           0.1702383           0.0537381           0.0511497
 Leave Link  202 at Sat Jan 20 14:05:18 2018, MaxMem=  4294967296 cpu:               0.3 elap:               0.0
 (Enter /share/apps/g16/l301.exe)
 Standard basis: CC-pVDZ (5D, 7F)
 Ernie: Thresh=  0.10000D-02 Tol=  0.10000D-05 Strict=F.
 Ernie:  86 primitive shells out of 1081 were deleted.
 There are   780 symmetry adapted cartesian basis functions of A   symmetry.
 There are   737 symmetry adapted basis functions of A   symmetry.
   737 basis functions,  1608 primitive gaussians,   780 cartesian basis functions
   154 alpha electrons      154 beta electrons
       nuclear repulsion energy      5627.9849682785 Hartrees.
 IExCor= 4639 DFT=T Ex+Corr=wB97XD ExCW=0 ScaHFX=  1.000000
 ScaDFX=  1.000000  1.000000  1.000000  1.000000 ScalE2=  1.000000  1.000000
 IRadAn=      5 IRanWt=     -1 IRanGd=            0 ICorTp=0 IEmpDi=121
 HFx  wShort=  0.000000 wLong=  0.200000 cFull=  0.222036 cShort=  0.000000 cLong=  0.777964
 DFx  wShort=  0.000000 wLong=  0.200000 cFull=  0.000000 cShort=  0.000000 cLong=  1.000000
 NAtoms=   70 NActive=   70 NUniq=   70 SFac= 1.00D+00 NAtFMM=   60 NAOKFM=T Big=T
 Integral buffers will be    131072 words long.
 Raffenetti 2 integral format.
 Two-electron integral symmetry is turned on.
 R6Disp:  Grimme-D2 Dispersion energy=       -0.0801544167 Hartrees.
 Nuclear repulsion after empirical dispersion term =     5627.9048138617 Hartrees.
 Leave Link  301 at Sat Jan 20 14:05:18 2018, MaxMem=  4294967296 cpu:               2.2 elap:               0.1
 (Enter /share/apps/g16/l302.exe)
 NPDir=0 NMtPBC=     1 NCelOv=     1 NCel=       1 NClECP=     1 NCelD=      1
         NCelK=      1 NCelE2=     1 NClLst=     1 CellRange=     0.0.
 One-electron integrals computed using PRISM.
 One-electron integral symmetry used in STVInt
 NBasis=   737 RedAO= T EigKep=  6.61D-04  NBF=   737
 NBsUse=   737 1.00D-06 EigRej= -1.00D+00 NBFU=   737
 Precomputing XC quadrature grid using
 IXCGrd= 4 IRadAn=           5 IRanWt=          -1 IRanGd=           0 AccXCQ= 0.00D+00.
 Generated NRdTot=       0 NPtTot=           0 NUsed=           0 NTot=          32
 NSgBfM=   769   769   769   769   769 MxSgAt=    70 MxSgA2=    70.
 Leave Link  302 at Sat Jan 20 14:05:23 2018, MaxMem=  4294967296 cpu:             134.5 elap:               4.2
 (Enter /share/apps/g16/l303.exe)
 DipDrv:  MaxL=1.
 Leave Link  303 at Sat Jan 20 14:05:23 2018, MaxMem=  4294967296 cpu:              12.7 elap:               0.4
 (Enter /share/apps/g16/l401.exe)
 ExpMin= 1.22D-01 ExpMax= 1.17D+04 ExpMxC= 4.01D+02 IAcc=3 IRadAn=         5 AccDes= 0.00D+00
 Harris functional with IExCor= 4639 and IRadAn=       5 diagonalized for initial guess.
 HarFok:  IExCor= 4639 AccDes= 0.00D+00 IRadAn=         5 IDoV= 1 UseB2=F ITyADJ=14
 ICtDFT=  3500011 ScaDFX=  1.000000  1.000000  1.000000  1.000000
 FoFCou: FMM=F IPFlag=           0 FMFlag=      100000 FMFlg1=        2001
         NFxFlg=           0 DoJE=T BraDBF=F KetDBF=T FulRan=T
         wScrn=  0.000000 ICntrl=       500 IOpCl=  0 I1Cent=   200000004 NGrid=           0
         NMat0=    1 NMatS0=      1 NMatT0=    0 NMatD0=    1 NMtDS0=    0 NMtDT0=    0
 Petite list used in FoFCou.
 Harris En= -1963.85944058191    
 JPrj=0 DoOrth=F DoCkMO=F.
 Leave Link  401 at Sat Jan 20 14:05:36 2018, MaxMem=  4294967296 cpu:             414.9 elap:              13.0
 (Enter /share/apps/g16/l502.exe)
 Integral symmetry usage will be decided dynamically.
 Closed shell SCF:
 Using DIIS extrapolation, IDIIS=  1040.
 NGot=  4294967296 LenX=  4293717438 LenY=  4293108258
 Requested convergence on RMS density matrix=1.00D-08 within  20 cycles.
 Requested convergence on MAX density matrix=1.00D-06.
 Requested convergence on             energy=1.00D-06.
 No special actions if energy rises.
 Fock matrices will be formed incrementally for  20 cycles.
 Integral accuracy reduced to 1.0D-05 until final iterations.

 Cycle   1  Pass 0  IDiag  1:
 FoFJK:  IHMeth= 1 ICntrl=       0 DoSepK=T KAlg= 0 I1Cent=           0 FoldK=F
 IRaf=         1 NMat=       1 IRICut=       1 DoRegI=T DoRafI=F ISym2E= 0 IDoP0=0 IntGTp=1.
 FoFCou: FMM=T IPFlag=           0 FMFlag=      100000 FMFlg1=        2001
         NFxFlg=           0 DoJE=T BraDBF=F KetDBF=F FulRan=T
         wScrn=  0.000000 ICntrl=       500 IOpCl=  0 I1Cent=           0 NGrid=           0
         NMat0=    1 NMatS0=      1 NMatT0=    0 NMatD0=    1 NMtDS0=    0 NMtDT0=    0
 Symmetry not used in FoFCou.
 FMM levels:  10  Number of levels for PrismC:   9
 E= -2048.29876389344    
 DIIS: error= 1.93D-02 at cycle   1 NSaved=   1.
 NSaved= 1 IEnMin= 1 EnMin= -2048.29876389344     IErMin= 1 ErrMin= 1.93D-02
 ErrMax= 1.93D-02  0.00D+00 EMaxC= 1.00D-01 BMatC= 8.32D-01 BMatP= 8.32D-01
 IDIUse=3 WtCom= 8.07D-01 WtEn= 1.93D-01
 Coeff-Com:  0.100D+01
 Coeff-En:   0.100D+01
 Coeff:      0.100D+01
 Gap=     0.252 Goal=   None    Shift=    0.000
 GapD=    0.252 DampG=1.000 DampE=0.500 DampFc=0.5000 IDamp=-1.
 Damping current iteration by 5.00D-01
 RMSDP=1.59D-03 MaxDP=1.30D-01              OVMax= 1.88D-01

 Cycle   2  Pass 0  IDiag  1:
 RMSU=  7.93D-04    CP:  9.98D-01
 E= -2048.49465640946     Delta-E=       -0.195892516023 Rises=F Damp=T
 DIIS: error= 1.03D-02 at cycle   2 NSaved=   2.
 NSaved= 2 IEnMin= 2 EnMin= -2048.49465640946     IErMin= 2 ErrMin= 1.03D-02
 ErrMax= 1.03D-02  0.00D+00 EMaxC= 1.00D-01 BMatC= 1.46D-01 BMatP= 8.32D-01
 IDIUse=3 WtCom= 8.97D-01 WtEn= 1.03D-01
 Coeff-Com: -0.190D+00 0.119D+01
 Coeff-En:   0.000D+00 0.100D+01
 Coeff:     -0.171D+00 0.117D+01
 Gap=     0.341 Goal=   None    Shift=    0.000
 RMSDP=5.98D-04 MaxDP=3.55D-02 DE=-1.96D-01 OVMax= 1.24D-01

 Cycle   3  Pass 0  IDiag  1:
 RMSU=  5.89D-04    CP:  9.94D-01  1.11D+00
 E= -2048.67145494093     Delta-E=       -0.176798531473 Rises=F Damp=F
 DIIS: error= 8.01D-03 at cycle   3 NSaved=   3.
 NSaved= 3 IEnMin= 3 EnMin= -2048.67145494093     IErMin= 3 ErrMin= 8.01D-03
 ErrMax= 8.01D-03  0.00D+00 EMaxC= 1.00D-01 BMatC= 6.76D-02 BMatP= 1.46D-01
 IDIUse=3 WtCom= 9.20D-01 WtEn= 8.01D-02
 Coeff-Com: -0.235D+00 0.559D+00 0.676D+00
 Coeff-En:   0.000D+00 0.000D+00 0.100D+01
 Coeff:     -0.216D+00 0.514D+00 0.702D+00
 Gap=     0.279 Goal=   None    Shift=    0.000
 RMSDP=3.79D-04 MaxDP=3.42D-02 DE=-1.77D-01 OVMax= 7.08D-02

 Cycle   4  Pass 0  IDiag  1:
 RMSU=  2.11D-04    CP:  9.94D-01  1.42D+00  6.54D-01
 E= -2048.72226265950     Delta-E=       -0.050807718563 Rises=F Damp=F
 DIIS: error= 2.85D-03 at cycle   4 NSaved=   4.
 NSaved= 4 IEnMin= 4 EnMin= -2048.72226265950     IErMin= 4 ErrMin= 2.85D-03
 ErrMax= 2.85D-03  0.00D+00 EMaxC= 1.00D-01 BMatC= 1.01D-02 BMatP= 6.76D-02
 IDIUse=3 WtCom= 9.72D-01 WtEn= 2.85D-02
 Coeff-Com: -0.969D-01 0.188D+00 0.380D+00 0.529D+00
 Coeff-En:   0.000D+00 0.000D+00 0.788D-01 0.921D+00
 Coeff:     -0.941D-01 0.182D+00 0.371D+00 0.541D+00
 Gap=     0.282 Goal=   None    Shift=    0.000
 RMSDP=1.35D-04 MaxDP=1.17D-02 DE=-5.08D-02 OVMax= 1.64D-02

 Cycle   5  Pass 0  IDiag  1:
 RMSU=  6.29D-05    CP:  9.94D-01  1.38D+00  7.94D-01  6.12D-01
 E= -2048.73072335858     Delta-E=       -0.008460699082 Rises=F Damp=F
 DIIS: error= 4.79D-04 at cycle   5 NSaved=   5.
 NSaved= 5 IEnMin= 5 EnMin= -2048.73072335858     IErMin= 5 ErrMin= 4.79D-04
 ErrMax= 4.79D-04  0.00D+00 EMaxC= 1.00D-01 BMatC= 3.02D-04 BMatP= 1.01D-02
 IDIUse=3 WtCom= 9.95D-01 WtEn= 4.79D-03
 Coeff-Com: -0.251D-01 0.430D-01 0.123D+00 0.238D+00 0.622D+00
 Coeff-En:   0.000D+00 0.000D+00 0.000D+00 0.000D+00 0.100D+01
 Coeff:     -0.249D-01 0.428D-01 0.122D+00 0.237D+00 0.624D+00
 Gap=     0.282 Goal=   None    Shift=    0.000
 RMSDP=2.71D-05 MaxDP=1.70D-03 DE=-8.46D-03 OVMax= 3.47D-03

 Failed to achieve initial convergence to 1.0D-08 in  6 cycles.
 Switch to full accuracy anyway.
 Cycle   6  Pass 1  IDiag  1:
 E= -2048.73087478270     Delta-E=       -0.000151424124 Rises=F Damp=F
 DIIS: error= 2.10D-04 at cycle   1 NSaved=   1.
 NSaved= 1 IEnMin= 1 EnMin= -2048.73087478270     IErMin= 1 ErrMin= 2.10D-04
 ErrMax= 2.10D-04  0.00D+00 EMaxC= 1.00D-01 BMatC= 7.94D-05 BMatP= 7.94D-05
 IDIUse=3 WtCom= 9.98D-01 WtEn= 2.10D-03
 Coeff-Com:  0.100D+01
 Coeff-En:   0.100D+01
 Coeff:      0.100D+01
 Gap=     0.282 Goal=   None    Shift=    0.000
 RMSDP=2.71D-05 MaxDP=1.70D-03 DE=-1.51D-04 OVMax= 2.53D-03

 Cycle   7  Pass 1  IDiag  1:
 RMSU=  1.15D-04    CP:  1.00D+00
 E= -2048.73093184671     Delta-E=       -0.000057064011 Rises=F Damp=F
 DIIS: error= 1.89D-04 at cycle   2 NSaved=   2.
 NSaved= 2 IEnMin= 2 EnMin= -2048.73093184671     IErMin= 2 ErrMin= 1.89D-04
 ErrMax= 1.89D-04  0.00D+00 EMaxC= 1.00D-01 BMatC= 4.58D-05 BMatP= 7.94D-05
 IDIUse=3 WtCom= 9.98D-01 WtEn= 1.89D-03
 Coeff-Com:  0.407D+00 0.593D+00
 Coeff-En:   0.000D+00 0.100D+01
 Coeff:      0.407D+00 0.593D+00
 Gap=     0.282 Goal=   None    Shift=    0.000
 RMSDP=1.20D-05 MaxDP=9.34D-04 DE=-5.71D-05 OVMax= 1.73D-03

 Cycle   8  Pass 1  IDiag  1:
 RMSU=  1.16D-05    CP:  1.00D+00  1.02D+00
 E= -2048.73096574761     Delta-E=       -0.000033900897 Rises=F Damp=F
 DIIS: error= 8.73D-05 at cycle   3 NSaved=   3.
 NSaved= 3 IEnMin= 3 EnMin= -2048.73096574761     IErMin= 3 ErrMin= 8.73D-05
 ErrMax= 8.73D-05  0.00D+00 EMaxC= 1.00D-01 BMatC= 1.08D-05 BMatP= 4.58D-05
 IDIUse=1 WtCom= 1.00D+00 WtEn= 0.00D+00
 Coeff-Com: -0.193D-01 0.314D+00 0.706D+00
 Coeff:     -0.193D-01 0.314D+00 0.706D+00
 Gap=     0.283 Goal=   None    Shift=    0.000
 RMSDP=5.85D-06 MaxDP=4.18D-04 DE=-3.39D-05 OVMax= 6.86D-04

 Cycle   9  Pass 1  IDiag  1:
 RMSU=  3.99D-06    CP:  1.00D+00  1.05D+00  7.58D-01
 E= -2048.73097626600     Delta-E=       -0.000010518391 Rises=F Damp=F
 DIIS: error= 2.11D-05 at cycle   4 NSaved=   4.
 NSaved= 4 IEnMin= 4 EnMin= -2048.73097626600     IErMin= 4 ErrMin= 2.11D-05
 ErrMax= 2.11D-05  0.00D+00 EMaxC= 1.00D-01 BMatC= 5.57D-07 BMatP= 1.08D-05
 IDIUse=1 WtCom= 1.00D+00 WtEn= 0.00D+00
 Coeff-Com: -0.306D-01 0.885D-01 0.269D+00 0.673D+00
 Coeff:     -0.306D-01 0.885D-01 0.269D+00 0.673D+00
 Gap=     0.283 Goal=   None    Shift=    0.000
 RMSDP=1.50D-06 MaxDP=1.24D-04 DE=-1.05D-05 OVMax= 4.64D-04

 Cycle  10  Pass 1  IDiag  1:
 RMSU=  1.34D-06    CP:  1.00D+00  1.05D+00  7.96D-01  1.10D+00
 E= -2048.73097717257     Delta-E=       -0.000000906570 Rises=F Damp=F
 DIIS: error= 1.23D-05 at cycle   5 NSaved=   5.
 NSaved= 5 IEnMin= 5 EnMin= -2048.73097717257     IErMin= 5 ErrMin= 1.23D-05
 ErrMax= 1.23D-05  0.00D+00 EMaxC= 1.00D-01 BMatC= 1.27D-07 BMatP= 5.57D-07
 IDIUse=1 WtCom= 1.00D+00 WtEn= 0.00D+00
 Coeff-Com: -0.348D-02-0.553D-01-0.114D+00 0.207D+00 0.966D+00
 Coeff:     -0.348D-02-0.553D-01-0.114D+00 0.207D+00 0.966D+00
 Gap=     0.283 Goal=   None    Shift=    0.000
 RMSDP=1.24D-06 MaxDP=7.53D-05 DE=-9.07D-07 OVMax= 2.34D-04

 Cycle  11  Pass 1  IDiag  1:
 RMSU=  5.03D-07    CP:  1.00D+00  1.06D+00  8.09D-01  1.37D+00  1.17D+00
 E= -2048.73097745084     Delta-E=       -0.000000278268 Rises=F Damp=F
 DIIS: error= 5.61D-06 at cycle   6 NSaved=   6.
 NSaved= 6 IEnMin= 6 EnMin= -2048.73097745084     IErMin= 6 ErrMin= 5.61D-06
 ErrMax= 5.61D-06  0.00D+00 EMaxC= 1.00D-01 BMatC= 3.18D-08 BMatP= 1.27D-07
 IDIUse=1 WtCom= 1.00D+00 WtEn= 0.00D+00
 Coeff-Com:  0.467D-02-0.467D-01-0.115D+00-0.422D-02 0.523D+00 0.639D+00
 Coeff:      0.467D-02-0.467D-01-0.115D+00-0.422D-02 0.523D+00 0.639D+00
 Gap=     0.283 Goal=   None    Shift=    0.000
 RMSDP=4.00D-07 MaxDP=3.71D-05 DE=-2.78D-07 OVMax= 1.23D-04

 Cycle  12  Pass 1  IDiag  1:
 RMSU=  1.94D-07    CP:  1.00D+00  1.06D+00  8.12D-01  1.45D+00  1.31D+00
                    CP:  9.35D-01
 E= -2048.73097749737     Delta-E=       -0.000000046534 Rises=F Damp=F
 DIIS: error= 1.28D-06 at cycle   7 NSaved=   7.
 NSaved= 7 IEnMin= 7 EnMin= -2048.73097749737     IErMin= 7 ErrMin= 1.28D-06
 ErrMax= 1.28D-06  0.00D+00 EMaxC= 1.00D-01 BMatC= 8.48D-10 BMatP= 3.18D-08
 IDIUse=1 WtCom= 1.00D+00 WtEn= 0.00D+00
 Coeff-Com:  0.114D-02-0.800D-02-0.211D-01-0.941D-02 0.620D-01 0.139D+00
 Coeff-Com:  0.836D+00
 Coeff:      0.114D-02-0.800D-02-0.211D-01-0.941D-02 0.620D-01 0.139D+00
 Coeff:      0.836D+00
 Gap=     0.283 Goal=   None    Shift=    0.000
 RMSDP=8.71D-08 MaxDP=5.14D-06 DE=-4.65D-08 OVMax= 2.25D-05

 Cycle  13  Pass 1  IDiag  1:
 RMSU=  5.12D-08    CP:  1.00D+00  1.05D+00  8.12D-01  1.46D+00  1.32D+00
                    CP:  1.02D+00  1.15D+00
 E= -2048.73097749896     Delta-E=       -0.000000001584 Rises=F Damp=F
 DIIS: error= 8.90D-07 at cycle   8 NSaved=   8.
 NSaved= 8 IEnMin= 8 EnMin= -2048.73097749896     IErMin= 8 ErrMin= 8.90D-07
 ErrMax= 8.90D-07  0.00D+00 EMaxC= 1.00D-01 BMatC= 3.57D-10 BMatP= 8.48D-10
 IDIUse=1 WtCom= 1.00D+00 WtEn= 0.00D+00
 Coeff-Com: -0.734D-03 0.912D-02 0.218D-01-0.182D-02-0.114D+00-0.106D+00
 Coeff-Com:  0.421D+00 0.771D+00
 Coeff:     -0.734D-03 0.912D-02 0.218D-01-0.182D-02-0.114D+00-0.106D+00
 Coeff:      0.421D+00 0.771D+00
 Gap=     0.283 Goal=   None    Shift=    0.000
 RMSDP=5.02D-08 MaxDP=3.11D-06 DE=-1.58D-09 OVMax= 1.12D-05

 Cycle  14  Pass 1  IDiag  1:
 RMSU=  2.88D-08    CP:  1.00D+00  1.05D+00  8.11D-01  1.46D+00  1.33D+00
                    CP:  1.07D+00  1.30D+00  1.12D+00
 E= -2048.73097749985     Delta-E=       -0.000000000891 Rises=F Damp=F
 DIIS: error= 2.40D-07 at cycle   9 NSaved=   9.
 NSaved= 9 IEnMin= 9 EnMin= -2048.73097749985     IErMin= 9 ErrMin= 2.40D-07
 ErrMax= 2.40D-07  0.00D+00 EMaxC= 1.00D-01 BMatC= 3.19D-11 BMatP= 3.57D-10
 IDIUse=1 WtCom= 1.00D+00 WtEn= 0.00D+00
 Coeff-Com: -0.422D-03 0.459D-02 0.112D-01 0.436D-03-0.522D-01-0.586D-01
 Coeff-Com:  0.783D-01 0.296D+00 0.721D+00
 Coeff:     -0.422D-03 0.459D-02 0.112D-01 0.436D-03-0.522D-01-0.586D-01
 Coeff:      0.783D-01 0.296D+00 0.721D+00
 Gap=     0.283 Goal=   None    Shift=    0.000
 RMSDP=1.43D-08 MaxDP=9.49D-07 DE=-8.91D-10 OVMax= 3.40D-06

 Cycle  15  Pass 1  IDiag  1:
 RMSU=  9.51D-09    CP:  1.00D+00  1.05D+00  8.11D-01  1.46D+00  1.33D+00
                    CP:  1.07D+00  1.33D+00  1.26D+00  1.12D+00
 E= -2048.73097750010     Delta-E=       -0.000000000254 Rises=F Damp=F
 DIIS: error= 7.66D-08 at cycle  10 NSaved=  10.
 NSaved=10 IEnMin=10 EnMin= -2048.73097750010     IErMin=10 ErrMin= 7.66D-08
 ErrMax= 7.66D-08  0.00D+00 EMaxC= 1.00D-01 BMatC= 5.65D-12 BMatP= 3.19D-11
 IDIUse=1 WtCom= 1.00D+00 WtEn= 0.00D+00
 Coeff-Com:  0.972D-05-0.358D-03-0.786D-03 0.205D-03 0.598D-02 0.203D-02
 Coeff-Com: -0.569D-01-0.614D-01 0.269D+00 0.842D+00
 Coeff:      0.972D-05-0.358D-03-0.786D-03 0.205D-03 0.598D-02 0.203D-02
 Coeff:     -0.569D-01-0.614D-01 0.269D+00 0.842D+00
 Gap=     0.283 Goal=   None    Shift=    0.000
 RMSDP=7.20D-09 MaxDP=3.87D-07 DE=-2.54D-10 OVMax= 1.40D-06

 SCF Done:  E(RwB97XD) =  -2048.73097750     A.U. after   15 cycles
            NFock= 15  Conv=0.72D-08     -V/T= 2.0053
 KE= 2.037938376778D+03 PE=-1.603648845112D+04 EE= 6.321914282984D+03
 Leave Link  502 at Sat Jan 20 14:17:50 2018, MaxMem=  4294967296 cpu:           22684.5 elap:             734.3
 (Enter /share/apps/g16/l601.exe)
 Copying SCF densities to generalized density rwf, IOpCl= 0 IROHF=0.

 **********************************************************************

            Population analysis using the SCF density.

 **********************************************************************

 Orbital symmetries:
       Occupied  (A) (A) (A) (A) (A) (A) (A) (A) (A) (A) (A) (A)
                 (A) (A) (A) (A) (A) (A) (A) (A) (A) (A) (A) (A)
                 (A) (A) (A) (A) (A) (A) (A) (A) (A) (A) (A) (A)
                 (A) (A) (A) (A) (A) (A) (A) (A) (A) (A) (A) (A)
                 (A) (A) (A) (A) (A) (A) (A) (A) (A) (A) (A) (A)
                 (A) (A) (A) (A) (A) (A) (A) (A) (A) (A) (A) (A)
                 (A) (A) (A) (A) (A) (A) (A) (A) (A) (A) (A) (A)
                 (A) (A) (A) (A) (A) (A) (A) (A) (A) (A) (A) (A)
                 (A) (A) (A) (A) (A) (A) (A) (A) (A) (A) (A) (A)
                 (A) (A) (A) (A) (A) (A) (A) (A) (A) (A) (A) (A)
                 (A) (A) (A) (A) (A) (A) (A) (A) (A) (A) (A) (A)
                 (A) (A) (A) (A) (A) (A) (A) (A) (A) (A) (A) (A)
                 (A) (A) (A) (A) (A) (A) (A) (A) (A) (A)
       Virtual   (A) (A) (A) (A) (A) (A) (A) (A) (A) (A) (A) (A)
                 (A) (A) (A) (A) (A) (A) (A) (A) (A) (A) (A) (A)
                 (A) (A) (A) (A) (A) (A) (A) (A) (A) (A) (A) (A)
                 (A) (A) (A) (A) (A) (A) (A) (A) (A) (A) (A) (A)
                 (A) (A) (A) (A) (A) (A) (A) (A) (A) (A) (A) (A)
                 (A) (A) (A) (A) (A) (A) (A) (A) (A) (A) (A) (A)
                 (A) (A) (A) (A) (A) (A) (A) (A) (A) (A) (A) (A)
                 (A) (A) (A) (A) (A) (A) (A) (A) (A) (A) (A) (A)
                 (A) (A) (A) (A) (A) (A) (A) (A) (A) (A) (A) (A)
                 (A) (A) (A) (A) (A) (A) (A) (A) (A) (A) (A) (A)
                 (A) (A) (A) (A) (A) (A) (A) (A) (A) (A) (A) (A)
                 (A) (A) (A) (A) (A) (A) (A) (A) (A) (A) (A) (A)
                 (A) (A) (A) (A) (A) (A) (A) (A) (A) (A) (A) (A)
                 (A) (A) (A) (A) (A) (A) (A) (A) (A) (A) (A) (A)
                 (A) (A) (A) (A) (A) (A) (A) (A) (A) (A) (A) (A)
                 (A) (A) (A) (A) (A) (A) (A) (A) (A) (A) (A) (A)
                 (A) (A) (A) (A) (A) (A) (A) (A) (A) (A) (A) (A)
                 (A) (A) (A) (A) (A) (A) (A) (A) (A) (A) (A) (A)
                 (A) (A) (A) (A) (A) (A) (A) (A) (A) (A) (A) (A)
                 (A) (A) (A) (A) (A) (A) (A) (A) (A) (A) (A) (A)
                 (A) (A) (A) (A) (A) (A) (A) (A) (A) (A) (A) (A)
                 (A) (A) (A) (A) (A) (A) (A) (A) (A) (A) (A) (A)
                 (A) (A) (A) (A) (A) (A) (A) (A) (A) (A) (A) (A)
                 (A) (A) (A) (A) (A) (A) (A) (A) (A) (A) (A) (A)
                 (A) (A) (A) (A) (A) (A) (A) (A) (A) (A) (A) (A)
                 (A) (A) (A) (A) (A) (A) (A) (A) (A) (A) (A) (A)
                 (A) (A) (A) (A) (A) (A) (A) (A) (A) (A) (A) (A)
                 (A) (A) (A) (A) (A) (A) (A) (A) (A) (A) (A) (A)
                 (A) (A) (A) (A) (A) (A) (A) (A) (A) (A) (A) (A)
                 (A) (A) (A) (A) (A) (A) (A) (A) (A) (A) (A) (A)
                 (A) (A) (A) (A) (A) (A) (A) (A) (A) (A) (A) (A)
                 (A) (A) (A) (A) (A) (A) (A) (A) (A) (A) (A) (A)
                 (A) (A) (A) (A) (A) (A) (A) (A) (A) (A) (A) (A)
                 (A) (A) (A) (A) (A) (A) (A) (A) (A) (A) (A) (A)
                 (A) (A) (A) (A) (A) (A) (A) (A) (A) (A) (A) (A)
                 (A) (A) (A) (A) (A) (A) (A) (A) (A) (A) (A) (A)
                 (A) (A) (A) (A) (A) (A) (A) (A) (A) (A) (A) (A)
                 (A) (A) (A) (A) (A) (A) (A) (A) (A) (A) (A) (A)
                 (A) (A) (A) (A) (A) (A) (A) (A) (A) (A) (A) (A)
                 (A) (A) (A) (A) (A) (A) (A) (A) (A) (A) (A) (A)
                 (A) (A) (A) (A) (A) (A) (A) (A) (A) (A) (A) (A)
                 (A) (A) (A) (A) (A) (A) (A) (A) (A) (A) (A) (A)
                 (A) (A) (A) (A) (A) (A) (A) (A) (A) (A) (A) (A)
                 (A) (A) (A) (A) (A) (A) (A) (A) (A) (A) (A) (A)
                 (A) (A) (A) (A) (A) (A) (A) (A) (A) (A) (A) (A)
                 (A) (A) (A) (A) (A) (A) (A) (A) (A) (A) (A) (A)
                 (A) (A) (A) (A) (A) (A) (A) (A) (A) (A) (A) (A)
                 (A) (A) (A) (A) (A) (A) (A) (A) (A) (A) (A) (A)
                 (A) (A) (A) (A) (A) (A) (A)
 The electronic state is 1-A.
 Alpha  occ. eigenvalues --  -19.25456 -19.21648 -19.20435 -14.52407 -14.52172
 Alpha  occ. eigenvalues --  -14.49440 -14.48149 -14.47864 -14.47503 -14.46565
 Alpha  occ. eigenvalues --  -14.46081 -14.45552 -14.44092 -14.44050 -14.43001
 Alpha  occ. eigenvalues --  -14.41958 -14.41701 -14.41542 -14.40771 -14.40519
 Alpha  occ. eigenvalues --  -10.45081 -10.40869 -10.39771 -10.39744 -10.38032
 Alpha  occ. eigenvalues --  -10.37954 -10.37432 -10.37131 -10.36072 -10.35396
 Alpha  occ. eigenvalues --  -10.35133 -10.34619 -10.34338 -10.33956 -10.33822
 Alpha  occ. eigenvalues --  -10.33572 -10.32963 -10.32543 -10.31787 -10.30687
 Alpha  occ. eigenvalues --  -10.29759 -10.29066 -10.27656  -1.19236  -1.15266
 Alpha  occ. eigenvalues --   -1.12975  -1.12682  -1.11970  -1.10218  -1.09211
 Alpha  occ. eigenvalues --   -1.08921  -1.08253  -1.05673  -1.04607  -1.02193
 Alpha  occ. eigenvalues --   -1.01162  -1.01036  -0.99316  -0.98289  -0.97611
 Alpha  occ. eigenvalues --   -0.96635  -0.96110  -0.93356  -0.90723  -0.87739
 Alpha  occ. eigenvalues --   -0.86130  -0.84608  -0.83674  -0.83576  -0.82989
 Alpha  occ. eigenvalues --   -0.81796  -0.78554  -0.77049  -0.74889  -0.74230
 Alpha  occ. eigenvalues --   -0.73561  -0.73310  -0.73060  -0.71684  -0.70416
 Alpha  occ. eigenvalues --   -0.67025  -0.66972  -0.66727  -0.66245  -0.64289
 Alpha  occ. eigenvalues --   -0.64263  -0.63472  -0.63323  -0.62508  -0.61629
 Alpha  occ. eigenvalues --   -0.61384  -0.60939  -0.60584  -0.59548  -0.59252
 Alpha  occ. eigenvalues --   -0.58178  -0.57954  -0.57513  -0.57205  -0.56407
 Alpha  occ. eigenvalues --   -0.56042  -0.55803  -0.55420  -0.54548  -0.54289
 Alpha  occ. eigenvalues --   -0.53965  -0.53552  -0.53199  -0.53082  -0.52633
 Alpha  occ. eigenvalues --   -0.52555  -0.52352  -0.52259  -0.51338  -0.50769
 Alpha  occ. eigenvalues --   -0.49845  -0.49709  -0.49266  -0.49148  -0.48671
 Alpha  occ. eigenvalues --   -0.48458  -0.48322  -0.47993  -0.47591  -0.47104
 Alpha  occ. eigenvalues --   -0.46976  -0.45496  -0.45343  -0.44562  -0.43230
 Alpha  occ. eigenvalues --   -0.41644  -0.40778  -0.39272  -0.37888  -0.37700
 Alpha  occ. eigenvalues --   -0.37574  -0.37132  -0.36927  -0.35939  -0.34555
 Alpha  occ. eigenvalues --   -0.34248  -0.34020  -0.33981  -0.33276  -0.32871
 Alpha  occ. eigenvalues --   -0.32400  -0.32227  -0.31792  -0.31582  -0.31217
 Alpha  occ. eigenvalues --   -0.31045  -0.29469  -0.26206  -0.24938
 Alpha virt. eigenvalues --    0.03318   0.04126   0.06935   0.07247   0.08223
 Alpha virt. eigenvalues --    0.08721   0.10050   0.10645   0.10991   0.12101
 Alpha virt. eigenvalues --    0.13205   0.13733   0.14089   0.14262   0.14766
 Alpha virt. eigenvalues --    0.15354   0.16139   0.17427   0.17985   0.18347
 Alpha virt. eigenvalues --    0.18605   0.19187   0.19515   0.19890   0.20203
 Alpha virt. eigenvalues --    0.20488   0.21018   0.21186   0.21479   0.22096
 Alpha virt. eigenvalues --    0.22775   0.23333   0.23615   0.24154   0.24267
 Alpha virt. eigenvalues --    0.24847   0.25180   0.25420   0.25510   0.25808
 Alpha virt. eigenvalues --    0.26236   0.26922   0.27956   0.28367   0.28570
 Alpha virt. eigenvalues --    0.29158   0.29589   0.29933   0.30344   0.30685
 Alpha virt. eigenvalues --    0.31379   0.31745   0.32824   0.33459   0.33603
 Alpha virt. eigenvalues --    0.34033   0.34470   0.35680   0.36219   0.36638
 Alpha virt. eigenvalues --    0.36765   0.37774   0.38467   0.38856   0.39133
 Alpha virt. eigenvalues --    0.40146   0.40317   0.40886   0.41343   0.41705
 Alpha virt. eigenvalues --    0.42417   0.42835   0.43230   0.43721   0.44293
 Alpha virt. eigenvalues --    0.44718   0.45777   0.46035   0.46723   0.47245
 Alpha virt. eigenvalues --    0.47524   0.48448   0.49154   0.49231   0.49564
 Alpha virt. eigenvalues --    0.49864   0.50644   0.50901   0.51334   0.51715
 Alpha virt. eigenvalues --    0.52118   0.52366   0.52750   0.53550   0.53859
 Alpha virt. eigenvalues --    0.54214   0.54774   0.55132   0.55428   0.55841
 Alpha virt. eigenvalues --    0.55911   0.56265   0.57216   0.57343   0.57527
 Alpha virt. eigenvalues --    0.57900   0.58343   0.59312   0.59549   0.60231
 Alpha virt. eigenvalues --    0.60305   0.60782   0.60970   0.61413   0.62137
 Alpha virt. eigenvalues --    0.62529   0.62873   0.63218   0.63913   0.64216
 Alpha virt. eigenvalues --    0.64311   0.64834   0.65183   0.65379   0.65671
 Alpha virt. eigenvalues --    0.65892   0.66266   0.67112   0.67291   0.67633
 Alpha virt. eigenvalues --    0.68320   0.68732   0.69344   0.69734   0.70361
 Alpha virt. eigenvalues --    0.70593   0.70989   0.71365   0.72354   0.73182
 Alpha virt. eigenvalues --    0.73445   0.73629   0.73899   0.73987   0.74838
 Alpha virt. eigenvalues --    0.75110   0.75233   0.75409   0.75449   0.75726
 Alpha virt. eigenvalues --    0.76260   0.76437   0.76942   0.77172   0.78033
 Alpha virt. eigenvalues --    0.78290   0.78607   0.78803   0.79429   0.79699
 Alpha virt. eigenvalues --    0.79842   0.80460   0.81021   0.81229   0.81473
 Alpha virt. eigenvalues --    0.82112   0.82328   0.82741   0.83065   0.83369
 Alpha virt. eigenvalues --    0.84089   0.84438   0.84868   0.85106   0.85556
 Alpha virt. eigenvalues --    0.85651   0.86279   0.86999   0.87233   0.87713
 Alpha virt. eigenvalues --    0.88397   0.88549   0.89631   0.89941   0.90288
 Alpha virt. eigenvalues --    0.90805   0.91512   0.92139   0.92402   0.93172
 Alpha virt. eigenvalues --    0.93565   0.93674   0.94086   0.94396   0.95039
 Alpha virt. eigenvalues --    0.95349   0.95769   0.96859   0.97246   0.97922
 Alpha virt. eigenvalues --    0.98329   0.98757   0.99354   0.99462   0.99769
 Alpha virt. eigenvalues --    1.00803   1.00906   1.01732   1.01861   1.01954
 Alpha virt. eigenvalues --    1.02379   1.02781   1.03878   1.04151   1.04585
 Alpha virt. eigenvalues --    1.04703   1.05238   1.06135   1.06502   1.06971
 Alpha virt. eigenvalues --    1.07501   1.07943   1.08165   1.08612   1.09118
 Alpha virt. eigenvalues --    1.09660   1.10166   1.10996   1.11404   1.11579
 Alpha virt. eigenvalues --    1.12390   1.12663   1.13213   1.14075   1.14705
 Alpha virt. eigenvalues --    1.14993   1.15364   1.15856   1.16020   1.16595
 Alpha virt. eigenvalues --    1.16823   1.17368   1.17581   1.18149   1.18738
 Alpha virt. eigenvalues --    1.19042   1.19321   1.20134   1.20476   1.20976
 Alpha virt. eigenvalues --    1.21148   1.21402   1.21580   1.21973   1.22475
 Alpha virt. eigenvalues --    1.23141   1.23573   1.23879   1.24376   1.25190
 Alpha virt. eigenvalues --    1.25456   1.26307   1.26494   1.27008   1.27296
 Alpha virt. eigenvalues --    1.28250   1.28540   1.28760   1.29460   1.30122
 Alpha virt. eigenvalues --    1.30562   1.30845   1.31929   1.32641   1.33156
 Alpha virt. eigenvalues --    1.33339   1.33955   1.34412   1.35133   1.35491
 Alpha virt. eigenvalues --    1.36102   1.37012   1.37197   1.38011   1.38489
 Alpha virt. eigenvalues --    1.39687   1.40209   1.40890   1.41192   1.41753
 Alpha virt. eigenvalues --    1.42602   1.42977   1.44414   1.45308   1.46591
 Alpha virt. eigenvalues --    1.47059   1.47390   1.48385   1.48727   1.49560
 Alpha virt. eigenvalues --    1.51230   1.51678   1.52204   1.52691   1.53031
 Alpha virt. eigenvalues --    1.53565   1.54106   1.55316   1.55553   1.56030
 Alpha virt. eigenvalues --    1.56223   1.56752   1.57873   1.58373   1.59003
 Alpha virt. eigenvalues --    1.59602   1.60449   1.61136   1.61717   1.61783
 Alpha virt. eigenvalues --    1.62766   1.63498   1.63958   1.64330   1.64665
 Alpha virt. eigenvalues --    1.65310   1.66136   1.66271   1.67198   1.67920
 Alpha virt. eigenvalues --    1.68108   1.68338   1.68783   1.69564   1.70280
 Alpha virt. eigenvalues --    1.70634   1.70937   1.71310   1.71876   1.72444
 Alpha virt. eigenvalues --    1.72990   1.73280   1.73553   1.74054   1.74337
 Alpha virt. eigenvalues --    1.74483   1.75071   1.75561   1.76015   1.76161
 Alpha virt. eigenvalues --    1.76381   1.76941   1.77372   1.77605   1.77861
 Alpha virt. eigenvalues --    1.78577   1.79300   1.79412   1.79681   1.80163
 Alpha virt. eigenvalues --    1.80404   1.80557   1.81096   1.81407   1.81758
 Alpha virt. eigenvalues --    1.82278   1.82925   1.83248   1.83659   1.84112
 Alpha virt. eigenvalues --    1.84434   1.84580   1.85011   1.85755   1.86217
 Alpha virt. eigenvalues --    1.86577   1.87304   1.87805   1.88271   1.88882
 Alpha virt. eigenvalues --    1.89123   1.89637   1.90200   1.90505   1.91115
 Alpha virt. eigenvalues --    1.91803   1.92069   1.92179   1.92675   1.92994
 Alpha virt. eigenvalues --    1.93293   1.93902   1.94529   1.94847   1.95605
 Alpha virt. eigenvalues --    1.96136   1.97756   1.98297   1.99051   1.99783
 Alpha virt. eigenvalues --    2.00218   2.00447   2.01888   2.02114   2.02763
 Alpha virt. eigenvalues --    2.03448   2.04122   2.04862   2.04970   2.05251
 Alpha virt. eigenvalues --    2.06416   2.07003   2.07511   2.07829   2.08653
 Alpha virt. eigenvalues --    2.08988   2.10485   2.10843   2.11384   2.11885
 Alpha virt. eigenvalues --    2.12290   2.12642   2.13546   2.14280   2.14859
 Alpha virt. eigenvalues --    2.16080   2.16870   2.17834   2.18347   2.18880
 Alpha virt. eigenvalues --    2.19808   2.20277   2.20485   2.21418   2.21868
 Alpha virt. eigenvalues --    2.23040   2.23566   2.23856   2.24992   2.25271
 Alpha virt. eigenvalues --    2.26087   2.26617   2.27140   2.27292   2.27766
 Alpha virt. eigenvalues --    2.28593   2.28998   2.29537   2.30233   2.30591
 Alpha virt. eigenvalues --    2.31190   2.31779   2.32053   2.32689   2.33417
 Alpha virt. eigenvalues --    2.33997   2.34235   2.34807   2.35526   2.35939
 Alpha virt. eigenvalues --    2.36121   2.36295   2.36951   2.37663   2.38681
 Alpha virt. eigenvalues --    2.39052   2.39684   2.40139   2.41458   2.41804
 Alpha virt. eigenvalues --    2.42685   2.43132   2.43794   2.44108   2.44571
 Alpha virt. eigenvalues --    2.45219   2.45700   2.46242   2.46822   2.47523
 Alpha virt. eigenvalues --    2.49358   2.49780   2.49977   2.51541   2.52855
 Alpha virt. eigenvalues --    2.53694   2.55249   2.56165   2.56233   2.56784
 Alpha virt. eigenvalues --    2.57725   2.58858   2.59117   2.60339   2.61302
 Alpha virt. eigenvalues --    2.62813   2.63453   2.63833   2.64419   2.64539
 Alpha virt. eigenvalues --    2.65635   2.65980   2.66581   2.67319   2.67734
 Alpha virt. eigenvalues --    2.68035   2.68513   2.69149   2.69872   2.71414
 Alpha virt. eigenvalues --    2.71503   2.71972   2.72414   2.72897   2.73661
 Alpha virt. eigenvalues --    2.73996   2.75083   2.76049   2.76873   2.77633
 Alpha virt. eigenvalues --    2.78359   2.79400   2.79547   2.80101   2.80627
 Alpha virt. eigenvalues --    2.80860   2.81231   2.82274   2.82391   2.82641
 Alpha virt. eigenvalues --    2.83060   2.83576   2.83939   2.84813   2.85676
 Alpha virt. eigenvalues --    2.86546   2.86781   2.87042   2.87836   2.88149
 Alpha virt. eigenvalues --    2.89031   2.89242   2.90706   2.94380   2.94473
 Alpha virt. eigenvalues --    2.95517   2.97334   2.98745   2.99338   3.00234
 Alpha virt. eigenvalues --    3.01868   3.03302   3.03560   3.05971   3.06757
 Alpha virt. eigenvalues --    3.08827   3.10450   3.10983   3.13872   3.15242
 Alpha virt. eigenvalues --    3.16071   3.17071   3.17249   3.19412   3.22688
 Alpha virt. eigenvalues --    3.23234   3.23584   3.23985   3.24149   3.29045
 Alpha virt. eigenvalues --    3.45185   3.47659   3.48925   3.49675   3.50819
 Alpha virt. eigenvalues --    3.53299   3.54813   3.56594   3.58253   3.60569
 Alpha virt. eigenvalues --    3.63925   3.70946   3.75405
          Condensed to atoms (all electrons):
 Mulliken charges:
               1
     1  N   -0.310500
     2  C    0.176027
     3  C    0.073343
     4  N   -0.256067
     5  C    0.131913
     6  H    0.027951
     7  N   -0.280898
     8  C    0.142105
     9  H    0.014352
    10  N   -0.285063
    11  C    0.223862
    12  C    0.094977
    13  N   -0.049239
    14  H    0.109335
    15  H    0.087331
    16  H    0.028948
    17  H    0.035971
    18  H    0.025228
    19  N   -0.276477
    20  C    0.208040
    21  C    0.183818
    22  N   -0.099493
    23  H    0.113579
    24  H    0.113000
    25  N   -0.291055
    26  C    0.207597
    27  N   -0.144700
    28  H    0.130445
    29  C    0.166831
    30  O   -0.323558
    31  C    0.008049
    32  N   -0.219029
    33  C    0.121729
    34  H    0.015459
    35  H    0.018264
    36  H    0.025353
    37  H    0.018110
    38  H    0.036797
    39  H    0.059144
    40  H    0.070261
    41  H    0.027393
    42  C   -0.111964
    43  O   -0.267057
    44  C    0.173498
    45  H    0.131978
    46  N   -0.123687
    47  O   -0.332759
    48  C    0.334568
    49  H    0.044523
    50  C    0.176962
    51  C    0.051516
    52  N   -0.277986
    53  H    0.037025
    54  H    0.036852
    55  H    0.019681
    56  H    0.123474
    57  H    0.119505
    58  N   -0.061721
    59  C    0.111885
    60  C    0.217374
    61  N   -0.266267
    62  H    0.050309
    63  C    0.137912
    64  N   -0.301349
    65  H    0.041322
    66  C    0.100407
    67  N   -0.244300
    68  C    0.032752
    69  C    0.180279
    70  N   -0.293863
 Sum of Mulliken charges =  -0.00000
 Mulliken charges with hydrogens summed into heavy atoms:
               1
     1  N   -0.310500
     2  C    0.266174
     3  C    0.073343
     4  N   -0.256067
     5  C    0.159863
     7  N   -0.280898
     8  C    0.156457
    10  N   -0.285063
    11  C    0.223862
    12  C    0.094977
    13  N    0.147428
    19  N   -0.276477
    20  C    0.208040
    21  C    0.245545
    22  N    0.127085
    25  N   -0.291055
    26  C    0.207597
    27  N   -0.014255
    29  C    0.166831
    30  O   -0.323558
    31  C    0.008049
    32  N   -0.219029
    33  C    0.137188
    42  C   -0.084571
    43  O   -0.267057
    44  C    0.173498
    46  N    0.008291
    47  O   -0.332759
    48  C    0.334568
    50  C    0.221485
    51  C    0.217718
    52  N   -0.277986
    58  N    0.181258
    59  C    0.111885
    60  C    0.217374
    61  N   -0.266267
    63  C    0.188221
    64  N   -0.301349
    66  C    0.141729
    67  N   -0.244300
    68  C    0.032752
    69  C    0.273837
    70  N   -0.293863
 Electronic spatial extent (au):  <R**2>=          21826.8072
 Charge=              0.0000 electrons
 Dipole moment (field-independent basis, Debye):
    X=             -5.9196    Y=              6.2348    Z=             -4.2503  Tot=              9.5906
 Quadrupole moment (field-independent basis, Debye-Ang):
   XX=           -146.0685   YY=           -227.4749   ZZ=           -259.7154
   XY=            -11.2787   XZ=              5.1100   YZ=             10.9524
 Traceless Quadrupole moment (field-independent basis, Debye-Ang):
   XX=             65.0178   YY=            -16.3886   ZZ=            -48.6291
   XY=            -11.2787   XZ=              5.1100   YZ=             10.9524
 Octapole moment (field-independent basis, Debye-Ang**2):
  XXX=             75.5971  YYY=             70.1938  ZZZ=            -16.7856  XYY=            -65.1008
  XXY=             63.0646  XXZ=             17.9284  XZZ=            -31.7748  YZZ=             38.8033
  YYZ=            -70.7383  XYZ=             32.0684
 Hexadecapole moment (field-independent basis, Debye-Ang**3):
 XXXX=         -15689.5875 YYYY=          -4146.1228 ZZZZ=          -3428.9792 XXXY=           -599.3555
 XXXZ=            -62.4567 YYYX=            -14.1097 YYYZ=             93.1791 ZZZX=             20.1420
 ZZZY=             27.8602 XXYY=          -3845.6408 XXZZ=          -3990.6394 YYZZ=          -1351.7494
 XXYZ=            -73.5467 YYXZ=            182.4021 ZZXY=            -72.4333
 N-N= 5.627904813862D+03 E-N=-1.603648844193D+04  KE= 2.037938376778D+03
 No NMR shielding tensors so no spin-rotation constants.
 Leave Link  601 at Sat Jan 20 14:17:52 2018, MaxMem=  4294967296 cpu:              49.6 elap:               1.7
 (Enter /share/apps/g16/l9999.exe)
 1\1\GINC-COMPUTE-0-3\SP\RwB97XD\CC-pVDZ\C23H27N17O3\SATYA\20-Jan-2018\
 0\\#p wb97xd/cc-pvdz sp scf=(maxcycles=20)\\Base pair stacking\\0,1\N,
 0,2.24198,5.95312,-6.86647\C,0,2.49595,7.40346,-6.76642\C,0,1.30174,3.
 96733,-6.76692\N,0,2.56765,3.77107,-7.29954\C,0,3.08344,4.97529,-7.338
 2\H,0,4.08319,5.21007,-7.7047\N,0,-0.8792,3.60057,-5.9472\C,0,-0.9408,
 4.91988,-5.73937\H,0,-1.87699,5.28065,-5.31553\N,0,-0.02387,5.85607,-5
 .9754\C,0,1.08665,5.30722,-6.49496\C,0,0.25166,3.07922,-6.47106\N,0,0.
 31506,1.76248,-6.67925\H,0,1.13242,1.33329,-7.06516\H,0,-0.45187,1.160
 46,-6.4567\H,0,2.68438,7.77378,-7.67611\H,0,1.69248,7.8576,-6.38259\H,
 0,3.28397,7.56579,-6.17256\N,0,0.462,5.3617,-3.17285\C,0,-0.35327,4.26
 542,-3.02604\C,0,0.02472,6.76919,-3.08095\N,0,-3.49789,2.91241,-2.4408
 4\H,0,-3.90826,2.00372,-2.3693\H,0,-4.10757,3.69633,-2.32049\N,0,-1.68
 012,4.28963,-2.7752\C,0,-2.18896,3.07351,-2.68708\N,0,-1.45617,1.9206,
 -2.83313\H,0,-1.92901,1.0338,-2.74964\C,0,-0.0899,1.87193,-3.09158\O,0
 ,0.47662,0.77797,-3.20582\C,0,0.47078,3.17079,-3.18895\N,0,1.7771,3.57
 18,-3.43311\C,0,1.7239,4.87603,-3.41446\H,0,2.57874,5.53469,-3.57163\H
 ,0,0.21424,7.23588,-3.94414\H,0,-0.95655,6.79969,-2.89536\H,0,0.51721,
 7.22532,-2.34054\H,0,-4.97863,-3.03317,-2.86048\H,0,-4.44173,-3.22242,
 -1.19297\H,0,-4.58266,-1.61064,-1.8956\H,0,-0.61969,-4.94893,-3.55046\
 C,0,-1.06786,-3.9881,-3.29712\O,0,0.88865,-2.73874,-3.78528\C,0,-0.283
 49,-2.79696,-3.41448\H,0,-0.42444,-0.77388,-3.1395\N,0,-0.94606,-1.636
 28,-3.06942\O,0,-2.74387,-0.44655,-2.35554\C,0,-2.24397,-1.52112,-2.63
 845\H,0,-2.97528,-4.78382,-2.77328\C,0,-2.33663,-3.90792,-2.8795\C,0,-
 4.3259,-2.6404,-2.09514\N,0,-2.9351,-2.71358,-2.55126\H,0,-7.33616,-0.
 61493,-4.15287\H,0,-6.22612,0.30408,-3.3878\H,0,-6.62983,-1.15829,-2.7
 8565\H,0,-0.62453,-1.76643,-7.10138\H,0,-1.80282,-2.99402,-6.97989\N,0
 ,-1.51627,-2.06137,-6.75792\C,0,-2.2897,-1.24793,-6.03593\C,0,-4.23544
 ,-0.661,-4.79846\N,0,-3.82488,0.58636,-4.5157\H,0,-2.21526,1.80672,-4.
 86278\C,0,-2.62457,0.81402,-5.04517\N,0,-1.84833,0.0006,-5.76862\H,0,-
 6.20117,-3.22772,-4.80152\C,0,-5.3797,-2.52566,-4.94722\N,0,-4.28443,-
 2.78886,-5.61715\C,0,-3.55022,-1.61491,-5.53062\C,0,-6.4878,-0.63133,-
 3.6237\N,0,-5.41698,-1.25602,-4.42439\\Version=EM64L-G16RevA.03\State=
 1-A\HF=-2048.7309775\RMSD=7.195e-09\Dipole=-3.7354509,-0.4109529,0.338
 7859\Quadrupole=-1.1108614,20.1142707,-19.0034093,35.0256382,-20.60478
 83,-3.517262\PG=C01 [X(C23H27N17O3)]\\@


 FOR THE NATURE OF THE CHEMICAL BOND
 IS THE PROBLEM AT THE HEART OF ALL CHEMISTRY.

                     -- BRYCE CRAWFORD, JR., 1953
 Job cpu time:       0 days  6 hours 28 minutes 31.5 seconds.
 Elapsed time:       0 days  0 hours 12 minutes 34.3 seconds.
 File lengths (MBytes):  RWF=    298 Int=      0 D2E=      0 Chk=     33 Scr=      1
 Normal termination of Gaussian 16 at Sat Jan 20 14:17:53 2018.
