 Entering Gaussian System, Link 0=g16
 Input=str25.-20.-1.0.com
 Output=str25.-20.-1.0.log
 Initial command:
 /share/apps/g16/l1.exe "/state/partition1/scr/Gau-24805.inp" -scrdir="/state/partition1/scr/"
 Entering Link 1 = /share/apps/g16/l1.exe PID=     24806.
  
 Copyright (c) 1988,1990,1992,1993,1995,1998,2003,2009,2016,
            Gaussian, Inc.  All Rights Reserved.
  
 This is part of the Gaussian(R) 16 program.  It is based on
 the Gaussian(R) 09 system (copyright 2009, Gaussian, Inc.),
 the Gaussian(R) 03 system (copyright 2003, Gaussian, Inc.),
 the Gaussian(R) 98 system (copyright 1998, Gaussian, Inc.),
 the Gaussian(R) 94 system (copyright 1995, Gaussian, Inc.),
 the Gaussian 92(TM) system (copyright 1992, Gaussian, Inc.),
 the Gaussian 90(TM) system (copyright 1990, Gaussian, Inc.),
 the Gaussian 88(TM) system (copyright 1988, Gaussian, Inc.),
 the Gaussian 86(TM) system (copyright 1986, Carnegie Mellon
 University), and the Gaussian 82(TM) system (copyright 1983,
 Carnegie Mellon University). Gaussian is a federally registered
 trademark of Gaussian, Inc.
  
 This software contains proprietary and confidential information,
 including trade secrets, belonging to Gaussian, Inc.
  
 This software is provided under written license and may be
 used, copied, transmitted, or stored only in accord with that
 written license.
  
 The following legend is applicable only to US Government
 contracts under FAR:
  
                    RESTRICTED RIGHTS LEGEND
  
 Use, reproduction and disclosure by the US Government is
 subject to restrictions as set forth in subparagraphs (a)
 and (c) of the Commercial Computer Software - Restricted
 Rights clause in FAR 52.227-19.
  
 Gaussian, Inc.
 340 Quinnipiac St., Bldg. 40, Wallingford CT 06492
  
  
 ---------------------------------------------------------------
 Warning -- This program may not be used in any manner that
 competes with the business of Gaussian, Inc. or will provide
 assistance to any competitor of Gaussian, Inc.  The licensee
 of this program is prohibited from giving any competitor of
 Gaussian, Inc. access to this program.  By using this program,
 the user acknowledges that Gaussian, Inc. is engaged in the
 business of creating and licensing software in the field of
 computational chemistry and represents and warrants to the
 licensee that it is not a competitor of Gaussian, Inc. and that
 it will not use this program in any manner prohibited above.
 ---------------------------------------------------------------
  

 Cite this work as:
 Gaussian 16, Revision A.03,
 M. J. Frisch, G. W. Trucks, H. B. Schlegel, G. E. Scuseria, 
 M. A. Robb, J. R. Cheeseman, G. Scalmani, V. Barone, 
 G. A. Petersson, H. Nakatsuji, X. Li, M. Caricato, A. V. Marenich, 
 J. Bloino, B. G. Janesko, R. Gomperts, B. Mennucci, H. P. Hratchian, 
 J. V. Ortiz, A. F. Izmaylov, J. L. Sonnenberg, D. Williams-Young, 
 F. Ding, F. Lipparini, F. Egidi, J. Goings, B. Peng, A. Petrone, 
 T. Henderson, D. Ranasinghe, V. G. Zakrzewski, J. Gao, N. Rega, 
 G. Zheng, W. Liang, M. Hada, M. Ehara, K. Toyota, R. Fukuda, 
 J. Hasegawa, M. Ishida, T. Nakajima, Y. Honda, O. Kitao, H. Nakai, 
 T. Vreven, K. Throssell, J. A. Montgomery, Jr., J. E. Peralta, 
 F. Ogliaro, M. J. Bearpark, J. J. Heyd, E. N. Brothers, K. N. Kudin, 
 V. N. Staroverov, T. A. Keith, R. Kobayashi, J. Normand, 
 K. Raghavachari, A. P. Rendell, J. C. Burant, S. S. Iyengar, 
 J. Tomasi, M. Cossi, J. M. Millam, M. Klene, C. Adamo, R. Cammi, 
 J. W. Ochterski, R. L. Martin, K. Morokuma, O. Farkas, 
 J. B. Foresman, and D. J. Fox, Gaussian, Inc., Wallingford CT, 2016.
 
 ******************************************
 Gaussian 16:  EM64L-G16RevA.03 25-Dec-2016
                20-Jan-2018 
 ******************************************
 %nprocshared=32
 Will use up to   32 processors via shared memory.
 %mem=32GB
 %chk=allatoms_t.chk
 ---------------------------------------
 #p wb97xd/cc-pvdz sp scf=(maxcycles=20)
 ---------------------------------------
 1/38=1,172=1/1;
 2/12=2,17=6,18=5,40=1/2;
 3/5=16,11=2,25=1,30=1,74=-58/1,2,3;
 4//1;
 5/5=2,7=20,38=5/2;
 6/7=2,8=2,9=2,10=2,28=1/1;
 99/5=1,9=1/99;
 Leave Link    1 at Sat Jan 20 19:18:00 2018, MaxMem=  4294967296 cpu:               2.7 elap:               0.1
 (Enter /share/apps/g16/l101.exe)
 ------------------
 Base pair stacking
 ------------------
 Symbolic Z-matrix:
 Charge =  0 Multiplicity = 1
 N                     2.09312   6.93322  -6.98938 
 C                     2.39023   8.37034  -6.83317 
 C                     1.13591   4.95603  -6.8808 
 N                     2.30358   4.78241  -7.60959 
 C                     2.83353   5.98054  -7.64584 
 H                     3.77214   6.22855  -8.14227 
 N                    -0.90552   4.55867  -5.76833 
 C                    -0.90707   5.86126  -5.46697 
 H                    -1.76152   6.20272  -4.88423 
 N                    -0.0158    6.80099  -5.77594 
 C                     0.99264   6.27649  -6.49174 
 C                     0.12299   4.06167  -6.48961 
 N                     0.12632   2.76164  -6.79142 
 H                     0.8675    2.35067  -7.32339 
 H                    -0.61151   2.1545   -6.49625 
 H                     2.44861   8.79993  -7.73441 
 H                     1.66302   8.80618  -6.30371 
 H                     3.2614    8.48271  -6.35522 
 N                     0.44351   5.83716  -3.15073 
 C                    -0.36095   4.74023  -2.95667 
 C                     0.02064   7.24373  -2.99765 
 N                    -3.45144   3.38392  -2.13752 
 H                    -3.8579    2.47501  -2.04861 
 H                    -4.04611   4.1669   -1.95302 
 N                    -1.66239   4.76288  -2.59642 
 C                    -2.16677   3.54651  -2.48836 
 N                    -1.45294   2.3948   -2.71529 
 H                    -1.92058   1.50769  -2.6089 
 C                    -0.11293   2.34774  -3.08682 
 O                     0.43806   1.25477  -3.26723 
 C                     0.44266   3.64689  -3.2069 
 N                     1.7258    4.04931  -3.55114 
 C                     1.67925   5.35311  -3.5047 
 H                     2.52063   6.01258  -3.72024 
 H                     0.13985   7.72565  -3.86503 
 H                    -0.94179   7.27306  -2.73092 
 H                     0.57443   7.68515  -2.29247 
 H                    -4.98424  -2.54964  -2.53997 
 H                    -4.31192  -2.77048  -0.92632 
 H                    -4.50442  -1.14585  -1.58577 
 H                    -0.7046   -4.4624   -3.62285 
 C                    -1.12664  -3.50533  -3.31603 
 O                     0.78746  -2.25172  -3.94197 
 C                    -0.35019  -2.31403  -3.4765 
 H                    -0.46027  -0.29599  -3.15445 
 N                    -0.97755  -1.15833  -3.05694 
 O                    -2.70562   0.02226  -2.17537 
 C                    -2.2349   -1.04811  -2.51799 
 H                    -2.98716  -4.30614  -2.65045 
 C                    -2.35619  -3.4299   -2.79342 
 C                    -4.26895  -2.17237  -1.82437 
 N                    -2.92094  -2.24039  -2.39532 
 H                    -7.11103   0.30343  -3.30522 
 H                    -5.87973   1.15529  -2.65688 
 H                    -6.22027  -0.34022  -2.0987 
 H                    -0.94125  -0.71924  -7.29939 
 H                    -2.11423  -1.93887  -7.08331 
 N                    -1.77781  -1.02691  -6.84591 
 C                    -2.41712  -0.25612  -5.96367 
 C                    -4.14321   0.26664  -4.41155 
 N                    -3.66836   1.48699  -4.11207 
 H                    -2.10282   2.70999  -4.61604 
 C                    -2.55598   1.73679  -4.7999 
 N                    -1.9141    0.9661   -5.68399 
 H                    -6.14195  -2.27147  -4.28826 
 C                    -5.33658  -1.57041  -4.50923 
 N                    -4.35954  -1.79948  -5.3522 
 C                    -3.59563  -0.64257  -5.29982 
 C                    -6.19372   0.24125  -2.91195 
 N                    -5.26812  -0.33921  -3.90409 
 
 ITRead=  0  0  0  0  0  0  0  0  0  0  0  0  0  0  0  0  0  0  0  0
 ITRead=  0  0  0  0  0  0  0  0  0  0  0  0  0  0  0  0  0  0  0  0
 ITRead=  0  0  0  0  0  0  0  0  0  0  0  0  0  0  0  0  0  0  0  0
 ITRead=  0  0  0  0  0  0  0  0  0  0
 MicOpt= -1 -1 -1 -1 -1 -1 -1 -1 -1 -1 -1 -1 -1 -1 -1 -1 -1 -1 -1 -1
 MicOpt= -1 -1 -1 -1 -1 -1 -1 -1 -1 -1 -1 -1 -1 -1 -1 -1 -1 -1 -1 -1
 MicOpt= -1 -1 -1 -1 -1 -1 -1 -1 -1 -1 -1 -1 -1 -1 -1 -1 -1 -1 -1 -1
 MicOpt= -1 -1 -1 -1 -1 -1 -1 -1 -1 -1
 NAtoms=     70 NQM=       70 NQMF=       0 NMMI=      0 NMMIF=      0
                NMic=       0 NMicF=      0.
                    Isotopes and Nuclear Properties:
 (Nuclear quadrupole moments (NQMom) in fm**2, nuclear magnetic moments (NMagM)
  in nuclear magnetons)

  Atom         1           2           3           4           5           6           7           8           9          10
 IAtWgt=          14          12          12          14          12           1          14          12           1          14
 AtmWgt=  14.0030740  12.0000000  12.0000000  14.0030740  12.0000000   1.0078250  14.0030740  12.0000000   1.0078250  14.0030740
 NucSpn=           2           0           0           2           0           1           2           0           1           2
 AtZEff=  -0.0000000  -0.0000000  -0.0000000  -0.0000000  -0.0000000  -0.0000000  -0.0000000  -0.0000000  -0.0000000  -0.0000000
 NQMom=    2.0440000   0.0000000   0.0000000   2.0440000   0.0000000   0.0000000   2.0440000   0.0000000   0.0000000   2.0440000
 NMagM=    0.4037610   0.0000000   0.0000000   0.4037610   0.0000000   2.7928460   0.4037610   0.0000000   2.7928460   0.4037610
 AtZNuc=   7.0000000   6.0000000   6.0000000   7.0000000   6.0000000   1.0000000   7.0000000   6.0000000   1.0000000   7.0000000

  Atom        11          12          13          14          15          16          17          18          19          20
 IAtWgt=          12          12          14           1           1           1           1           1          14          12
 AtmWgt=  12.0000000  12.0000000  14.0030740   1.0078250   1.0078250   1.0078250   1.0078250   1.0078250  14.0030740  12.0000000
 NucSpn=           0           0           2           1           1           1           1           1           2           0
 AtZEff=  -0.0000000  -0.0000000  -0.0000000  -0.0000000  -0.0000000  -0.0000000  -0.0000000  -0.0000000  -0.0000000  -0.0000000
 NQMom=    0.0000000   0.0000000   2.0440000   0.0000000   0.0000000   0.0000000   0.0000000   0.0000000   2.0440000   0.0000000
 NMagM=    0.0000000   0.0000000   0.4037610   2.7928460   2.7928460   2.7928460   2.7928460   2.7928460   0.4037610   0.0000000
 AtZNuc=   6.0000000   6.0000000   7.0000000   1.0000000   1.0000000   1.0000000   1.0000000   1.0000000   7.0000000   6.0000000

  Atom        21          22          23          24          25          26          27          28          29          30
 IAtWgt=          12          14           1           1          14          12          14           1          12          16
 AtmWgt=  12.0000000  14.0030740   1.0078250   1.0078250  14.0030740  12.0000000  14.0030740   1.0078250  12.0000000  15.9949146
 NucSpn=           0           2           1           1           2           0           2           1           0           0
 AtZEff=  -0.0000000  -0.0000000  -0.0000000  -0.0000000  -0.0000000  -0.0000000  -0.0000000  -0.0000000  -0.0000000  -0.0000000
 NQMom=    0.0000000   2.0440000   0.0000000   0.0000000   2.0440000   0.0000000   2.0440000   0.0000000   0.0000000   0.0000000
 NMagM=    0.0000000   0.4037610   2.7928460   2.7928460   0.4037610   0.0000000   0.4037610   2.7928460   0.0000000   0.0000000
 AtZNuc=   6.0000000   7.0000000   1.0000000   1.0000000   7.0000000   6.0000000   7.0000000   1.0000000   6.0000000   8.0000000

  Atom        31          32          33          34          35          36          37          38          39          40
 IAtWgt=          12          14          12           1           1           1           1           1           1           1
 AtmWgt=  12.0000000  14.0030740  12.0000000   1.0078250   1.0078250   1.0078250   1.0078250   1.0078250   1.0078250   1.0078250
 NucSpn=           0           2           0           1           1           1           1           1           1           1
 AtZEff=  -0.0000000  -0.0000000  -0.0000000  -0.0000000  -0.0000000  -0.0000000  -0.0000000  -0.0000000  -0.0000000  -0.0000000
 NQMom=    0.0000000   2.0440000   0.0000000   0.0000000   0.0000000   0.0000000   0.0000000   0.0000000   0.0000000   0.0000000
 NMagM=    0.0000000   0.4037610   0.0000000   2.7928460   2.7928460   2.7928460   2.7928460   2.7928460   2.7928460   2.7928460
 AtZNuc=   6.0000000   7.0000000   6.0000000   1.0000000   1.0000000   1.0000000   1.0000000   1.0000000   1.0000000   1.0000000

  Atom        41          42          43          44          45          46          47          48          49          50
 IAtWgt=           1          12          16          12           1          14          16          12           1          12
 AtmWgt=   1.0078250  12.0000000  15.9949146  12.0000000   1.0078250  14.0030740  15.9949146  12.0000000   1.0078250  12.0000000
 NucSpn=           1           0           0           0           1           2           0           0           1           0
 AtZEff=  -0.0000000  -0.0000000  -0.0000000  -0.0000000  -0.0000000  -0.0000000  -0.0000000  -0.0000000  -0.0000000  -0.0000000
 NQMom=    0.0000000   0.0000000   0.0000000   0.0000000   0.0000000   2.0440000   0.0000000   0.0000000   0.0000000   0.0000000
 NMagM=    2.7928460   0.0000000   0.0000000   0.0000000   2.7928460   0.4037610   0.0000000   0.0000000   2.7928460   0.0000000
 AtZNuc=   1.0000000   6.0000000   8.0000000   6.0000000   1.0000000   7.0000000   8.0000000   6.0000000   1.0000000   6.0000000

  Atom        51          52          53          54          55          56          57          58          59          60
 IAtWgt=          12          14           1           1           1           1           1          14          12          12
 AtmWgt=  12.0000000  14.0030740   1.0078250   1.0078250   1.0078250   1.0078250   1.0078250  14.0030740  12.0000000  12.0000000
 NucSpn=           0           2           1           1           1           1           1           2           0           0
 AtZEff=  -0.0000000  -0.0000000  -0.0000000  -0.0000000  -0.0000000  -0.0000000  -0.0000000  -0.0000000  -0.0000000  -0.0000000
 NQMom=    0.0000000   2.0440000   0.0000000   0.0000000   0.0000000   0.0000000   0.0000000   2.0440000   0.0000000   0.0000000
 NMagM=    0.0000000   0.4037610   2.7928460   2.7928460   2.7928460   2.7928460   2.7928460   0.4037610   0.0000000   0.0000000
 AtZNuc=   6.0000000   7.0000000   1.0000000   1.0000000   1.0000000   1.0000000   1.0000000   7.0000000   6.0000000   6.0000000

  Atom        61          62          63          64          65          66          67          68          69          70
 IAtWgt=          14           1          12          14           1          12          14          12          12          14
 AtmWgt=  14.0030740   1.0078250  12.0000000  14.0030740   1.0078250  12.0000000  14.0030740  12.0000000  12.0000000  14.0030740
 NucSpn=           2           1           0           2           1           0           2           0           0           2
 AtZEff=  -0.0000000  -0.0000000  -0.0000000  -0.0000000  -0.0000000  -0.0000000  -0.0000000  -0.0000000  -0.0000000  -0.0000000
 NQMom=    2.0440000   0.0000000   0.0000000   2.0440000   0.0000000   0.0000000   2.0440000   0.0000000   0.0000000   2.0440000
 NMagM=    0.4037610   2.7928460   0.0000000   0.4037610   2.7928460   0.0000000   0.4037610   0.0000000   0.0000000   0.4037610
 AtZNuc=   7.0000000   1.0000000   6.0000000   7.0000000   1.0000000   6.0000000   7.0000000   6.0000000   6.0000000   7.0000000
 Leave Link  101 at Sat Jan 20 19:18:00 2018, MaxMem=  4294967296 cpu:               7.7 elap:               0.3
 (Enter /share/apps/g16/l202.exe)
 Stoichiometry    C23H27N17O3
 Framework group  C1[X(C23H27N17O3)]
 Deg. of freedom   204
 Full point group                 C1      NOp   1
 Largest Abelian subgroup         C1      NOp   1
 Largest concise Abelian subgroup C1      NOp   1
                         Standard orientation:                         
 ---------------------------------------------------------------------
 Center     Atomic      Atomic             Coordinates (Angstroms)
 Number     Number       Type             X           Y           Z
 ---------------------------------------------------------------------
      1          7           0        6.306075   -1.104373   -0.665771
      2          6           0        7.622638   -0.443777   -0.574867
      3          6           0        4.151291   -1.485696   -0.886720
      4          7           0        4.745954   -2.723168   -0.687297
      5          6           0        6.020330   -2.443911   -0.562167
      6          1           0        6.803218   -3.183404   -0.391352
      7          7           0        2.560290    0.216204   -1.254384
      8          6           0        3.583990    1.075489   -1.219327
      9          1           0        3.317510    2.122208   -1.359450
     10          7           0        4.881370    0.837043   -1.038036
     11          6           0        5.100301   -0.478336   -0.875965
     12          6           0        2.813419   -1.100361   -1.088047
     13          7           0        1.792845   -1.959667   -1.122716
     14          1           0        1.933714   -2.943215   -1.004287
     15          1           0        0.853186   -1.649793   -1.268167
     16          1           0        8.224040   -0.795951   -1.292138
     17          1           0        7.510083    0.542708   -0.690184
     18          1           0        8.029684   -0.628807    0.319603
     19          7           0        3.678228    1.629617    1.402443
     20          6           0        2.318000    1.664592    1.211061
     21          6           0        4.618726    2.710431    1.044674
     22          7           0       -0.521999    3.329936    0.105282
     23          1           0       -1.505340    3.157596    0.054573
     24          1           0       -0.196995    4.209648   -0.242869
     25          7           0        1.617740    2.684005    0.668407
     26          6           0        0.323627    2.422743    0.616965
     27          7           0       -0.243336    1.253267    1.062345
     28          1           0       -1.242289    1.139963    0.983446
     29          6           0        0.457859    0.190930    1.624166
     30          8           0       -0.150055   -0.821042    1.994402
     31          6           0        1.849373    0.456904    1.686112
     32          7           0        2.894357   -0.320623    2.166061
     33          6           0        3.957016    0.413877    1.977686
     34          1           0        4.972467    0.115964    2.241097
     35          1           0        5.285839    2.368772    0.383587
     36          1           0        4.111378    3.471035    0.641741
     37          1           0        5.094288    3.025865    1.865134
     38          1           0       -6.164049    0.934032   -0.276142
     39          1           0       -6.400949    1.377300    1.412657
     40          1           0       -4.973875    1.944425    0.544797
     41          1           0       -5.430901   -3.313628    1.860789
     42          6           0       -4.904067   -2.375042    1.688333
     43          8           0       -2.769501   -3.262381    2.220664
     44          6           0       -3.486040   -2.323746    1.873782
     45          1           0       -1.918559   -1.013800    1.749837
     46          7           0       -2.918806   -1.089341    1.629358
     47          8           0       -2.975965    1.104523    1.045509
     48          6           0       -3.565915    0.055918    1.237977
     49          1           0       -6.641089   -1.260954    1.152248
     50          6           0       -5.563031   -1.274590    1.307054
     51          6           0       -5.666115    1.124090    0.663004
     52          7           0       -4.931794   -0.073544    1.080363
     53          1           0       -4.622512    3.253573   -2.619695
     54          1           0       -3.458086    3.336335   -1.479795
     55          1           0       -5.012751    3.099957   -1.042500
     56          1           0       -1.535260   -3.425738   -1.659950
     57          1           0       -3.183546   -3.217222   -2.046914
     58          7           0       -2.308455   -2.805109   -1.790817
     59          6           0       -2.179385   -1.486384   -1.631169
     60          6           0       -2.946226    0.765919   -1.602387
     61          7           0       -1.758907    1.291480   -1.258168
     62          1           0        0.151285    0.673359   -0.846193
     63          6           0       -0.844807    0.332491   -1.125274
     64          7           0       -0.972105   -0.988854   -1.284742
     65          1           0       -6.084026    0.735171   -2.380480
     66          6           0       -5.049890    0.477549   -2.149986
     67          7           0       -4.567992   -0.741242   -2.149023
     68          6           0       -3.235000   -0.572636   -1.803411
     69          6           0       -4.319837    2.898904   -1.735058
     70          7           0       -4.123439    1.439176   -1.827965
 ---------------------------------------------------------------------
 Rotational constants (GHZ):           0.1752118           0.0530442           0.0503235
 Leave Link  202 at Sat Jan 20 19:18:00 2018, MaxMem=  4294967296 cpu:               0.3 elap:               0.0
 (Enter /share/apps/g16/l301.exe)
 Standard basis: CC-pVDZ (5D, 7F)
 Ernie: Thresh=  0.10000D-02 Tol=  0.10000D-05 Strict=F.
 Ernie:  86 primitive shells out of 1081 were deleted.
 There are   780 symmetry adapted cartesian basis functions of A   symmetry.
 There are   737 symmetry adapted basis functions of A   symmetry.
   737 basis functions,  1608 primitive gaussians,   780 cartesian basis functions
   154 alpha electrons      154 beta electrons
       nuclear repulsion energy      5638.6259255483 Hartrees.
 IExCor= 4639 DFT=T Ex+Corr=wB97XD ExCW=0 ScaHFX=  1.000000
 ScaDFX=  1.000000  1.000000  1.000000  1.000000 ScalE2=  1.000000  1.000000
 IRadAn=      5 IRanWt=     -1 IRanGd=            0 ICorTp=0 IEmpDi=121
 HFx  wShort=  0.000000 wLong=  0.200000 cFull=  0.222036 cShort=  0.000000 cLong=  0.777964
 DFx  wShort=  0.000000 wLong=  0.200000 cFull=  0.000000 cShort=  0.000000 cLong=  1.000000
 NAtoms=   70 NActive=   70 NUniq=   70 SFac= 1.00D+00 NAtFMM=   60 NAOKFM=T Big=T
 Integral buffers will be    131072 words long.
 Raffenetti 2 integral format.
 Two-electron integral symmetry is turned on.
 R6Disp:  Grimme-D2 Dispersion energy=       -0.0801030669 Hartrees.
 Nuclear repulsion after empirical dispersion term =     5638.5458224814 Hartrees.
 Leave Link  301 at Sat Jan 20 19:18:00 2018, MaxMem=  4294967296 cpu:               2.1 elap:               0.1
 (Enter /share/apps/g16/l302.exe)
 NPDir=0 NMtPBC=     1 NCelOv=     1 NCel=       1 NClECP=     1 NCelD=      1
         NCelK=      1 NCelE2=     1 NClLst=     1 CellRange=     0.0.
 One-electron integrals computed using PRISM.
 One-electron integral symmetry used in STVInt
 NBasis=   737 RedAO= T EigKep=  6.65D-04  NBF=   737
 NBsUse=   737 1.00D-06 EigRej= -1.00D+00 NBFU=   737
 Precomputing XC quadrature grid using
 IXCGrd= 4 IRadAn=           5 IRanWt=          -1 IRanGd=           0 AccXCQ= 0.00D+00.
 Generated NRdTot=       0 NPtTot=           0 NUsed=           0 NTot=          32
 NSgBfM=   768   768   768   768   768 MxSgAt=    70 MxSgA2=    70.
 Leave Link  302 at Sat Jan 20 19:18:05 2018, MaxMem=  4294967296 cpu:             141.1 elap:               4.5
 (Enter /share/apps/g16/l303.exe)
 DipDrv:  MaxL=1.
 Leave Link  303 at Sat Jan 20 19:18:05 2018, MaxMem=  4294967296 cpu:              12.6 elap:               0.4
 (Enter /share/apps/g16/l401.exe)
 ExpMin= 1.22D-01 ExpMax= 1.17D+04 ExpMxC= 4.01D+02 IAcc=3 IRadAn=         5 AccDes= 0.00D+00
 Harris functional with IExCor= 4639 and IRadAn=       5 diagonalized for initial guess.
 HarFok:  IExCor= 4639 AccDes= 0.00D+00 IRadAn=         5 IDoV= 1 UseB2=F ITyADJ=14
 ICtDFT=  3500011 ScaDFX=  1.000000  1.000000  1.000000  1.000000
 FoFCou: FMM=F IPFlag=           0 FMFlag=      100000 FMFlg1=        2001
         NFxFlg=           0 DoJE=T BraDBF=F KetDBF=T FulRan=T
         wScrn=  0.000000 ICntrl=       500 IOpCl=  0 I1Cent=   200000004 NGrid=           0
         NMat0=    1 NMatS0=      1 NMatT0=    0 NMatD0=    1 NMtDS0=    0 NMtDT0=    0
 Petite list used in FoFCou.
 Harris En= -1963.81940130311    
 JPrj=0 DoOrth=F DoCkMO=F.
 Leave Link  401 at Sat Jan 20 19:18:18 2018, MaxMem=  4294967296 cpu:             415.8 elap:              13.0
 (Enter /share/apps/g16/l502.exe)
 Integral symmetry usage will be decided dynamically.
 Closed shell SCF:
 Using DIIS extrapolation, IDIIS=  1040.
 NGot=  4294967296 LenX=  4293717438 LenY=  4293108258
 Requested convergence on RMS density matrix=1.00D-08 within  20 cycles.
 Requested convergence on MAX density matrix=1.00D-06.
 Requested convergence on             energy=1.00D-06.
 No special actions if energy rises.
 Fock matrices will be formed incrementally for  20 cycles.
 Integral accuracy reduced to 1.0D-05 until final iterations.

 Cycle   1  Pass 0  IDiag  1:
 FoFJK:  IHMeth= 1 ICntrl=       0 DoSepK=T KAlg= 0 I1Cent=           0 FoldK=F
 IRaf=         1 NMat=       1 IRICut=       1 DoRegI=T DoRafI=F ISym2E= 0 IDoP0=0 IntGTp=1.
 FoFCou: FMM=T IPFlag=           0 FMFlag=      100000 FMFlg1=        2001
         NFxFlg=           0 DoJE=T BraDBF=F KetDBF=F FulRan=T
         wScrn=  0.000000 ICntrl=       500 IOpCl=  0 I1Cent=           0 NGrid=           0
         NMat0=    1 NMatS0=      1 NMatT0=    0 NMatD0=    1 NMtDS0=    0 NMtDT0=    0
 Symmetry not used in FoFCou.
 FMM levels:  10  Number of levels for PrismC:   9
 E= -2048.27106367831    
 DIIS: error= 2.01D-02 at cycle   1 NSaved=   1.
 NSaved= 1 IEnMin= 1 EnMin= -2048.27106367831     IErMin= 1 ErrMin= 2.01D-02
 ErrMax= 2.01D-02  0.00D+00 EMaxC= 1.00D-01 BMatC= 8.31D-01 BMatP= 8.31D-01
 IDIUse=3 WtCom= 7.99D-01 WtEn= 2.01D-01
 Coeff-Com:  0.100D+01
 Coeff-En:   0.100D+01
 Coeff:      0.100D+01
 Gap=     0.249 Goal=   None    Shift=    0.000
 GapD=    0.249 DampG=1.000 DampE=0.500 DampFc=0.5000 IDamp=-1.
 Damping current iteration by 5.00D-01
 RMSDP=1.59D-03 MaxDP=1.29D-01              OVMax= 2.06D-01

 Cycle   2  Pass 0  IDiag  1:
 RMSU=  7.95D-04    CP:  9.98D-01
 E= -2048.46677386277     Delta-E=       -0.195710184461 Rises=F Damp=T
 DIIS: error= 9.51D-03 at cycle   2 NSaved=   2.
 NSaved= 2 IEnMin= 2 EnMin= -2048.46677386277     IErMin= 2 ErrMin= 9.51D-03
 ErrMax= 9.51D-03  0.00D+00 EMaxC= 1.00D-01 BMatC= 1.46D-01 BMatP= 8.31D-01
 IDIUse=3 WtCom= 9.05D-01 WtEn= 9.51D-02
 Coeff-Com: -0.192D+00 0.119D+01
 Coeff-En:   0.000D+00 0.100D+01
 Coeff:     -0.174D+00 0.117D+01
 Gap=     0.355 Goal=   None    Shift=    0.000
 RMSDP=6.02D-04 MaxDP=3.51D-02 DE=-1.96D-01 OVMax= 1.34D-01

 Cycle   3  Pass 0  IDiag  1:
 RMSU=  5.93D-04    CP:  9.94D-01  1.11D+00
 E= -2048.64300653239     Delta-E=       -0.176232669628 Rises=F Damp=F
 DIIS: error= 8.05D-03 at cycle   3 NSaved=   3.
 NSaved= 3 IEnMin= 3 EnMin= -2048.64300653239     IErMin= 3 ErrMin= 8.05D-03
 ErrMax= 8.05D-03  0.00D+00 EMaxC= 1.00D-01 BMatC= 6.75D-02 BMatP= 1.46D-01
 IDIUse=3 WtCom= 9.19D-01 WtEn= 8.05D-02
 Coeff-Com: -0.236D+00 0.559D+00 0.676D+00
 Coeff-En:   0.000D+00 0.000D+00 0.100D+01
 Coeff:     -0.217D+00 0.514D+00 0.702D+00
 Gap=     0.275 Goal=   None    Shift=    0.000
 RMSDP=3.81D-04 MaxDP=3.38D-02 DE=-1.76D-01 OVMax= 7.78D-02

 Cycle   4  Pass 0  IDiag  1:
 RMSU=  2.11D-04    CP:  9.94D-01  1.42D+00  6.55D-01
 E= -2048.69386155149     Delta-E=       -0.050855019097 Rises=F Damp=F
 DIIS: error= 2.93D-03 at cycle   4 NSaved=   4.
 NSaved= 4 IEnMin= 4 EnMin= -2048.69386155149     IErMin= 4 ErrMin= 2.93D-03
 ErrMax= 2.93D-03  0.00D+00 EMaxC= 1.00D-01 BMatC= 1.00D-02 BMatP= 6.75D-02
 IDIUse=3 WtCom= 9.71D-01 WtEn= 2.93D-02
 Coeff-Com: -0.974D-01 0.188D+00 0.380D+00 0.529D+00
 Coeff-En:   0.000D+00 0.000D+00 0.773D-01 0.923D+00
 Coeff:     -0.945D-01 0.183D+00 0.371D+00 0.540D+00
 Gap=     0.279 Goal=   None    Shift=    0.000
 RMSDP=1.35D-04 MaxDP=1.20D-02 DE=-5.09D-02 OVMax= 1.60D-02

 Cycle   5  Pass 0  IDiag  1:
 RMSU=  6.31D-05    CP:  9.94D-01  1.39D+00  7.94D-01  6.09D-01
 E= -2048.70226705969     Delta-E=       -0.008405508203 Rises=F Damp=F
 DIIS: error= 6.31D-04 at cycle   5 NSaved=   5.
 NSaved= 5 IEnMin= 5 EnMin= -2048.70226705969     IErMin= 5 ErrMin= 6.31D-04
 ErrMax= 6.31D-04  0.00D+00 EMaxC= 1.00D-01 BMatC= 2.96D-04 BMatP= 1.00D-02
 IDIUse=3 WtCom= 9.94D-01 WtEn= 6.31D-03
 Coeff-Com: -0.247D-01 0.423D-01 0.121D+00 0.236D+00 0.626D+00
 Coeff-En:   0.000D+00 0.000D+00 0.000D+00 0.000D+00 0.100D+01
 Coeff:     -0.246D-01 0.420D-01 0.120D+00 0.234D+00 0.628D+00
 Gap=     0.279 Goal=   None    Shift=    0.000
 RMSDP=2.70D-05 MaxDP=1.79D-03 DE=-8.41D-03 OVMax= 3.42D-03

 Failed to achieve initial convergence to 1.0D-08 in  6 cycles.
 Switch to full accuracy anyway.
 Cycle   6  Pass 1  IDiag  1:
 E= -2048.70232513882     Delta-E=       -0.000058079124 Rises=F Damp=F
 DIIS: error= 2.20D-04 at cycle   1 NSaved=   1.
 NSaved= 1 IEnMin= 1 EnMin= -2048.70232513882     IErMin= 1 ErrMin= 2.20D-04
 ErrMax= 2.20D-04  0.00D+00 EMaxC= 1.00D-01 BMatC= 7.86D-05 BMatP= 7.86D-05
 IDIUse=3 WtCom= 9.98D-01 WtEn= 2.20D-03
 Coeff-Com:  0.100D+01
 Coeff-En:   0.100D+01
 Coeff:      0.100D+01
 Gap=     0.279 Goal=   None    Shift=    0.000
 RMSDP=2.70D-05 MaxDP=1.79D-03 DE=-5.81D-05 OVMax= 2.53D-03

 Cycle   7  Pass 1  IDiag  1:
 RMSU=  1.12D-04    CP:  1.00D+00
 E= -2048.70237989483     Delta-E=       -0.000054756016 Rises=F Damp=F
 DIIS: error= 2.49D-04 at cycle   2 NSaved=   2.
 NSaved= 2 IEnMin= 2 EnMin= -2048.70237989483     IErMin= 1 ErrMin= 2.20D-04
 ErrMax= 2.49D-04  0.00D+00 EMaxC= 1.00D-01 BMatC= 4.57D-05 BMatP= 7.86D-05
 IDIUse=3 WtCom= 9.98D-01 WtEn= 2.49D-03
 Coeff-Com:  0.409D+00 0.591D+00
 Coeff-En:   0.000D+00 0.100D+01
 Coeff:      0.408D+00 0.592D+00
 Gap=     0.279 Goal=   None    Shift=    0.000
 RMSDP=1.19D-05 MaxDP=9.79D-04 DE=-5.48D-05 OVMax= 1.71D-03

 Cycle   8  Pass 1  IDiag  1:
 RMSU=  1.16D-05    CP:  1.00D+00  1.02D+00
 E= -2048.70241363722     Delta-E=       -0.000033742383 Rises=F Damp=F
 DIIS: error= 9.48D-05 at cycle   3 NSaved=   3.
 NSaved= 3 IEnMin= 3 EnMin= -2048.70241363722     IErMin= 3 ErrMin= 9.48D-05
 ErrMax= 9.48D-05  0.00D+00 EMaxC= 1.00D-01 BMatC= 1.04D-05 BMatP= 4.57D-05
 IDIUse=1 WtCom= 1.00D+00 WtEn= 0.00D+00
 Coeff-Com: -0.185D-01 0.310D+00 0.708D+00
 Coeff:     -0.185D-01 0.310D+00 0.708D+00
 Gap=     0.279 Goal=   None    Shift=    0.000
 RMSDP=5.77D-06 MaxDP=4.25D-04 DE=-3.37D-05 OVMax= 6.58D-04

 Cycle   9  Pass 1  IDiag  1:
 RMSU=  3.91D-06    CP:  1.00D+00  1.05D+00  7.59D-01
 E= -2048.70242375327     Delta-E=       -0.000010116049 Rises=F Damp=F
 DIIS: error= 2.15D-05 at cycle   4 NSaved=   4.
 NSaved= 4 IEnMin= 4 EnMin= -2048.70242375327     IErMin= 4 ErrMin= 2.15D-05
 ErrMax= 2.15D-05  0.00D+00 EMaxC= 1.00D-01 BMatC= 5.39D-07 BMatP= 1.04D-05
 IDIUse=1 WtCom= 1.00D+00 WtEn= 0.00D+00
 Coeff-Com: -0.299D-01 0.871D-01 0.270D+00 0.673D+00
 Coeff:     -0.299D-01 0.871D-01 0.270D+00 0.673D+00
 Gap=     0.279 Goal=   None    Shift=    0.000
 RMSDP=1.47D-06 MaxDP=1.20D-04 DE=-1.01D-05 OVMax= 4.45D-04

 Cycle  10  Pass 1  IDiag  1:
 RMSU=  1.32D-06    CP:  1.00D+00  1.05D+00  7.96D-01  1.09D+00
 E= -2048.70242462285     Delta-E=       -0.000000869589 Rises=F Damp=F
 DIIS: error= 1.26D-05 at cycle   5 NSaved=   5.
 NSaved= 5 IEnMin= 5 EnMin= -2048.70242462285     IErMin= 5 ErrMin= 1.26D-05
 ErrMax= 1.26D-05  0.00D+00 EMaxC= 1.00D-01 BMatC= 1.23D-07 BMatP= 5.39D-07
 IDIUse=1 WtCom= 1.00D+00 WtEn= 0.00D+00
 Coeff-Com: -0.358D-02-0.539D-01-0.112D+00 0.208D+00 0.961D+00
 Coeff:     -0.358D-02-0.539D-01-0.112D+00 0.208D+00 0.961D+00
 Gap=     0.279 Goal=   None    Shift=    0.000
 RMSDP=1.20D-06 MaxDP=7.18D-05 DE=-8.70D-07 OVMax= 2.21D-04

 Cycle  11  Pass 1  IDiag  1:
 RMSU=  4.99D-07    CP:  1.00D+00  1.06D+00  8.07D-01  1.36D+00  1.17D+00
 E= -2048.70242488599     Delta-E=       -0.000000263137 Rises=F Damp=F
 DIIS: error= 6.48D-06 at cycle   6 NSaved=   6.
 NSaved= 6 IEnMin= 6 EnMin= -2048.70242488599     IErMin= 6 ErrMin= 6.48D-06
 ErrMax= 6.48D-06  0.00D+00 EMaxC= 1.00D-01 BMatC= 3.05D-08 BMatP= 1.23D-07
 IDIUse=1 WtCom= 1.00D+00 WtEn= 0.00D+00
 Coeff-Com:  0.458D-02-0.461D-01-0.115D+00-0.493D-02 0.520D+00 0.642D+00
 Coeff:      0.458D-02-0.461D-01-0.115D+00-0.493D-02 0.520D+00 0.642D+00
 Gap=     0.279 Goal=   None    Shift=    0.000
 RMSDP=3.92D-07 MaxDP=3.64D-05 DE=-2.63D-07 OVMax= 1.20D-04

 Cycle  12  Pass 1  IDiag  1:
 RMSU=  1.88D-07    CP:  1.00D+00  1.05D+00  8.10D-01  1.43D+00  1.31D+00
                    CP:  9.35D-01
 E= -2048.70242493068     Delta-E=       -0.000000044689 Rises=F Damp=F
 DIIS: error= 1.37D-06 at cycle   7 NSaved=   7.
 NSaved= 7 IEnMin= 7 EnMin= -2048.70242493068     IErMin= 7 ErrMin= 1.37D-06
 ErrMax= 1.37D-06  0.00D+00 EMaxC= 1.00D-01 BMatC= 8.20D-10 BMatP= 3.05D-08
 IDIUse=1 WtCom= 1.00D+00 WtEn= 0.00D+00
 Coeff-Com:  0.116D-02-0.823D-02-0.219D-01-0.918D-02 0.655D-01 0.144D+00
 Coeff-Com:  0.829D+00
 Coeff:      0.116D-02-0.823D-02-0.219D-01-0.918D-02 0.655D-01 0.144D+00
 Coeff:      0.829D+00
 Gap=     0.279 Goal=   None    Shift=    0.000
 RMSDP=8.47D-08 MaxDP=4.86D-06 DE=-4.47D-08 OVMax= 2.11D-05

 Cycle  13  Pass 1  IDiag  1:
 RMSU=  5.03D-08    CP:  1.00D+00  1.05D+00  8.10D-01  1.44D+00  1.33D+00
                    CP:  1.02D+00  1.15D+00
 E= -2048.70242493243     Delta-E=       -0.000000001753 Rises=F Damp=F
 DIIS: error= 7.54D-07 at cycle   8 NSaved=   8.
 NSaved= 8 IEnMin= 8 EnMin= -2048.70242493243     IErMin= 8 ErrMin= 7.54D-07
 ErrMax= 7.54D-07  0.00D+00 EMaxC= 1.00D-01 BMatC= 3.46D-10 BMatP= 8.20D-10
 IDIUse=1 WtCom= 1.00D+00 WtEn= 0.00D+00
 Coeff-Com: -0.707D-03 0.885D-02 0.214D-01-0.161D-02-0.112D+00-0.105D+00
 Coeff-Com:  0.423D+00 0.766D+00
 Coeff:     -0.707D-03 0.885D-02 0.214D-01-0.161D-02-0.112D+00-0.105D+00
 Coeff:      0.423D+00 0.766D+00
 Gap=     0.279 Goal=   None    Shift=    0.000
 RMSDP=4.85D-08 MaxDP=3.22D-06 DE=-1.75D-09 OVMax= 1.02D-05

 Cycle  14  Pass 1  IDiag  1:
 RMSU=  2.83D-08    CP:  1.00D+00  1.05D+00  8.09D-01  1.44D+00  1.33D+00
                    CP:  1.06D+00  1.30D+00  1.09D+00
 E= -2048.70242493290     Delta-E=       -0.000000000468 Rises=F Damp=F
 DIIS: error= 2.26D-07 at cycle   9 NSaved=   9.
 NSaved= 9 IEnMin= 9 EnMin= -2048.70242493290     IErMin= 9 ErrMin= 2.26D-07
 ErrMax= 2.26D-07  0.00D+00 EMaxC= 1.00D-01 BMatC= 3.00D-11 BMatP= 3.46D-10
 IDIUse=1 WtCom= 1.00D+00 WtEn= 0.00D+00
 Coeff-Com: -0.410D-03 0.449D-02 0.110D-01 0.496D-03-0.516D-01-0.580D-01
 Coeff-Com:  0.785D-01 0.291D+00 0.725D+00
 Coeff:     -0.410D-03 0.449D-02 0.110D-01 0.496D-03-0.516D-01-0.580D-01
 Coeff:      0.785D-01 0.291D+00 0.725D+00
 Gap=     0.279 Goal=   None    Shift=    0.000
 RMSDP=1.40D-08 MaxDP=9.13D-07 DE=-4.68D-10 OVMax= 3.20D-06

 Cycle  15  Pass 1  IDiag  1:
 RMSU=  9.32D-09    CP:  1.00D+00  1.05D+00  8.09D-01  1.44D+00  1.34D+00
                    CP:  1.07D+00  1.33D+00  1.24D+00  1.12D+00
 E= -2048.70242493327     Delta-E=       -0.000000000367 Rises=F Damp=F
 DIIS: error= 8.71D-08 at cycle  10 NSaved=  10.
 NSaved=10 IEnMin=10 EnMin= -2048.70242493327     IErMin=10 ErrMin= 8.71D-08
 ErrMax= 8.71D-08  0.00D+00 EMaxC= 1.00D-01 BMatC= 5.43D-12 BMatP= 3.00D-11
 IDIUse=1 WtCom= 1.00D+00 WtEn= 0.00D+00
 Coeff-Com:  0.341D-05-0.286D-03-0.614D-03 0.199D-03 0.516D-02 0.128D-02
 Coeff-Com: -0.550D-01-0.573D-01 0.274D+00 0.833D+00
 Coeff:      0.341D-05-0.286D-03-0.614D-03 0.199D-03 0.516D-02 0.128D-02
 Coeff:     -0.550D-01-0.573D-01 0.274D+00 0.833D+00
 Gap=     0.279 Goal=   None    Shift=    0.000
 RMSDP=7.00D-09 MaxDP=3.74D-07 DE=-3.67D-10 OVMax= 1.27D-06

 SCF Done:  E(RwB97XD) =  -2048.70242493     A.U. after   15 cycles
            NFock= 15  Conv=0.70D-08     -V/T= 2.0052
 KE= 2.038128704137D+03 PE=-1.605784047689D+04 EE= 6.332463525340D+03
 Leave Link  502 at Sat Jan 20 19:30:42 2018, MaxMem=  4294967296 cpu:           23052.5 elap:             743.4
 (Enter /share/apps/g16/l601.exe)
 Copying SCF densities to generalized density rwf, IOpCl= 0 IROHF=0.

 **********************************************************************

            Population analysis using the SCF density.

 **********************************************************************

 Orbital symmetries:
       Occupied  (A) (A) (A) (A) (A) (A) (A) (A) (A) (A) (A) (A)
                 (A) (A) (A) (A) (A) (A) (A) (A) (A) (A) (A) (A)
                 (A) (A) (A) (A) (A) (A) (A) (A) (A) (A) (A) (A)
                 (A) (A) (A) (A) (A) (A) (A) (A) (A) (A) (A) (A)
                 (A) (A) (A) (A) (A) (A) (A) (A) (A) (A) (A) (A)
                 (A) (A) (A) (A) (A) (A) (A) (A) (A) (A) (A) (A)
                 (A) (A) (A) (A) (A) (A) (A) (A) (A) (A) (A) (A)
                 (A) (A) (A) (A) (A) (A) (A) (A) (A) (A) (A) (A)
                 (A) (A) (A) (A) (A) (A) (A) (A) (A) (A) (A) (A)
                 (A) (A) (A) (A) (A) (A) (A) (A) (A) (A) (A) (A)
                 (A) (A) (A) (A) (A) (A) (A) (A) (A) (A) (A) (A)
                 (A) (A) (A) (A) (A) (A) (A) (A) (A) (A) (A) (A)
                 (A) (A) (A) (A) (A) (A) (A) (A) (A) (A)
       Virtual   (A) (A) (A) (A) (A) (A) (A) (A) (A) (A) (A) (A)
                 (A) (A) (A) (A) (A) (A) (A) (A) (A) (A) (A) (A)
                 (A) (A) (A) (A) (A) (A) (A) (A) (A) (A) (A) (A)
                 (A) (A) (A) (A) (A) (A) (A) (A) (A) (A) (A) (A)
                 (A) (A) (A) (A) (A) (A) (A) (A) (A) (A) (A) (A)
                 (A) (A) (A) (A) (A) (A) (A) (A) (A) (A) (A) (A)
                 (A) (A) (A) (A) (A) (A) (A) (A) (A) (A) (A) (A)
                 (A) (A) (A) (A) (A) (A) (A) (A) (A) (A) (A) (A)
                 (A) (A) (A) (A) (A) (A) (A) (A) (A) (A) (A) (A)
                 (A) (A) (A) (A) (A) (A) (A) (A) (A) (A) (A) (A)
                 (A) (A) (A) (A) (A) (A) (A) (A) (A) (A) (A) (A)
                 (A) (A) (A) (A) (A) (A) (A) (A) (A) (A) (A) (A)
                 (A) (A) (A) (A) (A) (A) (A) (A) (A) (A) (A) (A)
                 (A) (A) (A) (A) (A) (A) (A) (A) (A) (A) (A) (A)
                 (A) (A) (A) (A) (A) (A) (A) (A) (A) (A) (A) (A)
                 (A) (A) (A) (A) (A) (A) (A) (A) (A) (A) (A) (A)
                 (A) (A) (A) (A) (A) (A) (A) (A) (A) (A) (A) (A)
                 (A) (A) (A) (A) (A) (A) (A) (A) (A) (A) (A) (A)
                 (A) (A) (A) (A) (A) (A) (A) (A) (A) (A) (A) (A)
                 (A) (A) (A) (A) (A) (A) (A) (A) (A) (A) (A) (A)
                 (A) (A) (A) (A) (A) (A) (A) (A) (A) (A) (A) (A)
                 (A) (A) (A) (A) (A) (A) (A) (A) (A) (A) (A) (A)
                 (A) (A) (A) (A) (A) (A) (A) (A) (A) (A) (A) (A)
                 (A) (A) (A) (A) (A) (A) (A) (A) (A) (A) (A) (A)
                 (A) (A) (A) (A) (A) (A) (A) (A) (A) (A) (A) (A)
                 (A) (A) (A) (A) (A) (A) (A) (A) (A) (A) (A) (A)
                 (A) (A) (A) (A) (A) (A) (A) (A) (A) (A) (A) (A)
                 (A) (A) (A) (A) (A) (A) (A) (A) (A) (A) (A) (A)
                 (A) (A) (A) (A) (A) (A) (A) (A) (A) (A) (A) (A)
                 (A) (A) (A) (A) (A) (A) (A) (A) (A) (A) (A) (A)
                 (A) (A) (A) (A) (A) (A) (A) (A) (A) (A) (A) (A)
                 (A) (A) (A) (A) (A) (A) (A) (A) (A) (A) (A) (A)
                 (A) (A) (A) (A) (A) (A) (A) (A) (A) (A) (A) (A)
                 (A) (A) (A) (A) (A) (A) (A) (A) (A) (A) (A) (A)
                 (A) (A) (A) (A) (A) (A) (A) (A) (A) (A) (A) (A)
                 (A) (A) (A) (A) (A) (A) (A) (A) (A) (A) (A) (A)
                 (A) (A) (A) (A) (A) (A) (A) (A) (A) (A) (A) (A)
                 (A) (A) (A) (A) (A) (A) (A) (A) (A) (A) (A) (A)
                 (A) (A) (A) (A) (A) (A) (A) (A) (A) (A) (A) (A)
                 (A) (A) (A) (A) (A) (A) (A) (A) (A) (A) (A) (A)
                 (A) (A) (A) (A) (A) (A) (A) (A) (A) (A) (A) (A)
                 (A) (A) (A) (A) (A) (A) (A) (A) (A) (A) (A) (A)
                 (A) (A) (A) (A) (A) (A) (A) (A) (A) (A) (A) (A)
                 (A) (A) (A) (A) (A) (A) (A) (A) (A) (A) (A) (A)
                 (A) (A) (A) (A) (A) (A) (A) (A) (A) (A) (A) (A)
                 (A) (A) (A) (A) (A) (A) (A) (A) (A) (A) (A) (A)
                 (A) (A) (A) (A) (A) (A) (A) (A) (A) (A) (A) (A)
                 (A) (A) (A) (A) (A) (A) (A) (A) (A) (A) (A) (A)
                 (A) (A) (A) (A) (A) (A) (A)
 The electronic state is 1-A.
 Alpha  occ. eigenvalues --  -19.25600 -19.21758 -19.20406 -14.52357 -14.52203
 Alpha  occ. eigenvalues --  -14.49623 -14.48083 -14.47760 -14.47677 -14.46272
 Alpha  occ. eigenvalues --  -14.45673 -14.45250 -14.43823 -14.43575 -14.43182
 Alpha  occ. eigenvalues --  -14.42172 -14.41671 -14.41655 -14.40978 -14.40490
 Alpha  occ. eigenvalues --  -10.45277 -10.40649 -10.39879 -10.39580 -10.37830
 Alpha  occ. eigenvalues --  -10.37803 -10.37559 -10.36916 -10.36293 -10.35418
 Alpha  occ. eigenvalues --  -10.35277 -10.34802 -10.34390 -10.34170 -10.33861
 Alpha  occ. eigenvalues --  -10.33767 -10.32959 -10.32170 -10.31877 -10.30833
 Alpha  occ. eigenvalues --  -10.29278 -10.29136 -10.27568  -1.19444  -1.15013
 Alpha  occ. eigenvalues --   -1.13012  -1.12798  -1.12181  -1.10251  -1.09294
 Alpha  occ. eigenvalues --   -1.08863  -1.08174  -1.05894  -1.04461  -1.02348
 Alpha  occ. eigenvalues --   -1.01416  -1.00843  -0.99163  -0.98285  -0.97798
 Alpha  occ. eigenvalues --   -0.96473  -0.96046  -0.93601  -0.90883  -0.87615
 Alpha  occ. eigenvalues --   -0.86052  -0.84830  -0.83870  -0.83518  -0.83159
 Alpha  occ. eigenvalues --   -0.81581  -0.78717  -0.76896  -0.74807  -0.74248
 Alpha  occ. eigenvalues --   -0.73732  -0.73308  -0.73147  -0.71948  -0.70314
 Alpha  occ. eigenvalues --   -0.67215  -0.66951  -0.66632  -0.66378  -0.64486
 Alpha  occ. eigenvalues --   -0.64214  -0.63624  -0.63353  -0.62636  -0.61539
 Alpha  occ. eigenvalues --   -0.61326  -0.61044  -0.60675  -0.59513  -0.59379
 Alpha  occ. eigenvalues --   -0.58250  -0.57911  -0.57757  -0.57353  -0.56654
 Alpha  occ. eigenvalues --   -0.56214  -0.55961  -0.55372  -0.54900  -0.54609
 Alpha  occ. eigenvalues --   -0.54083  -0.53592  -0.53141  -0.52847  -0.52660
 Alpha  occ. eigenvalues --   -0.52376  -0.52219  -0.52120  -0.51494  -0.50732
 Alpha  occ. eigenvalues --   -0.49915  -0.49672  -0.49222  -0.49033  -0.48744
 Alpha  occ. eigenvalues --   -0.48367  -0.48324  -0.47921  -0.47760  -0.47093
 Alpha  occ. eigenvalues --   -0.46937  -0.45612  -0.45164  -0.44287  -0.43305
 Alpha  occ. eigenvalues --   -0.41804  -0.40806  -0.39442  -0.38096  -0.37639
 Alpha  occ. eigenvalues --   -0.37525  -0.37009  -0.36919  -0.35714  -0.34620
 Alpha  occ. eigenvalues --   -0.34331  -0.34036  -0.33873  -0.32948  -0.32886
 Alpha  occ. eigenvalues --   -0.32412  -0.31912  -0.31769  -0.31575  -0.31522
 Alpha  occ. eigenvalues --   -0.31178  -0.29229  -0.26436  -0.24723
 Alpha virt. eigenvalues --    0.03185   0.04372   0.06930   0.07354   0.08225
 Alpha virt. eigenvalues --    0.08787   0.09963   0.10359   0.11269   0.12052
 Alpha virt. eigenvalues --    0.13156   0.13452   0.14030   0.14673   0.14726
 Alpha virt. eigenvalues --    0.15500   0.16061   0.17517   0.17965   0.18407
 Alpha virt. eigenvalues --    0.18824   0.19190   0.19494   0.19736   0.20091
 Alpha virt. eigenvalues --    0.20450   0.21093   0.21335   0.21408   0.22000
 Alpha virt. eigenvalues --    0.23036   0.23303   0.24025   0.24137   0.24671
 Alpha virt. eigenvalues --    0.24818   0.25266   0.25493   0.25756   0.26116
 Alpha virt. eigenvalues --    0.26600   0.27316   0.28036   0.28499   0.28620
 Alpha virt. eigenvalues --    0.29404   0.29818   0.30261   0.30607   0.30848
 Alpha virt. eigenvalues --    0.31600   0.32067   0.32835   0.33542   0.33971
 Alpha virt. eigenvalues --    0.34028   0.34922   0.35802   0.36364   0.36800
 Alpha virt. eigenvalues --    0.36991   0.38074   0.38698   0.39072   0.39519
 Alpha virt. eigenvalues --    0.40208   0.40589   0.41113   0.41379   0.41694
 Alpha virt. eigenvalues --    0.42362   0.42865   0.43223   0.44198   0.44578
 Alpha virt. eigenvalues --    0.44830   0.45696   0.46033   0.46618   0.47792
 Alpha virt. eigenvalues --    0.47872   0.48447   0.49424   0.49700   0.49814
 Alpha virt. eigenvalues --    0.49973   0.50763   0.51166   0.51200   0.51985
 Alpha virt. eigenvalues --    0.52271   0.52417   0.53014   0.53706   0.54161
 Alpha virt. eigenvalues --    0.54440   0.54641   0.55125   0.55642   0.55873
 Alpha virt. eigenvalues --    0.56224   0.56942   0.57299   0.57409   0.57717
 Alpha virt. eigenvalues --    0.58221   0.58496   0.59391   0.59717   0.60277
 Alpha virt. eigenvalues --    0.60541   0.60885   0.61343   0.61413   0.62153
 Alpha virt. eigenvalues --    0.62571   0.63165   0.63391   0.63880   0.64126
 Alpha virt. eigenvalues --    0.64707   0.64843   0.65082   0.65340   0.65910
 Alpha virt. eigenvalues --    0.66060   0.66453   0.66933   0.67399   0.67715
 Alpha virt. eigenvalues --    0.68137   0.68591   0.69303   0.69669   0.70026
 Alpha virt. eigenvalues --    0.70682   0.71295   0.72144   0.72842   0.73150
 Alpha virt. eigenvalues --    0.73207   0.73748   0.73892   0.74543   0.74750
 Alpha virt. eigenvalues --    0.74833   0.75122   0.75585   0.75805   0.76164
 Alpha virt. eigenvalues --    0.76471   0.76983   0.77343   0.77768   0.77971
 Alpha virt. eigenvalues --    0.78082   0.78742   0.78930   0.79272   0.79409
 Alpha virt. eigenvalues --    0.79685   0.80445   0.80753   0.81152   0.81956
 Alpha virt. eigenvalues --    0.82215   0.82440   0.82572   0.82791   0.82963
 Alpha virt. eigenvalues --    0.83724   0.84096   0.84568   0.84603   0.85341
 Alpha virt. eigenvalues --    0.85741   0.86367   0.87266   0.87433   0.87920
 Alpha virt. eigenvalues --    0.88510   0.89036   0.89629   0.90049   0.90570
 Alpha virt. eigenvalues --    0.91077   0.91348   0.91501   0.92381   0.92610
 Alpha virt. eigenvalues --    0.93401   0.93686   0.93989   0.94505   0.95101
 Alpha virt. eigenvalues --    0.95749   0.96157   0.96598   0.97525   0.97872
 Alpha virt. eigenvalues --    0.98106   0.98671   0.99267   0.99461   1.00309
 Alpha virt. eigenvalues --    1.00466   1.01215   1.01406   1.02177   1.02445
 Alpha virt. eigenvalues --    1.02742   1.03009   1.03600   1.04358   1.04828
 Alpha virt. eigenvalues --    1.05198   1.05965   1.06164   1.06530   1.06724
 Alpha virt. eigenvalues --    1.07789   1.07803   1.08808   1.09057   1.09496
 Alpha virt. eigenvalues --    1.10379   1.10789   1.11326   1.11532   1.12642
 Alpha virt. eigenvalues --    1.12951   1.13165   1.13260   1.13718   1.14607
 Alpha virt. eigenvalues --    1.15130   1.15311   1.15740   1.16404   1.16998
 Alpha virt. eigenvalues --    1.17111   1.17839   1.18080   1.18432   1.18791
 Alpha virt. eigenvalues --    1.19349   1.19843   1.20372   1.20656   1.20886
 Alpha virt. eigenvalues --    1.21334   1.21536   1.21860   1.22620   1.23523
 Alpha virt. eigenvalues --    1.23793   1.24077   1.24207   1.24883   1.25120
 Alpha virt. eigenvalues --    1.25659   1.26485   1.26715   1.27534   1.27702
 Alpha virt. eigenvalues --    1.27945   1.29336   1.29830   1.30258   1.30629
 Alpha virt. eigenvalues --    1.30983   1.31470   1.32241   1.32678   1.33689
 Alpha virt. eigenvalues --    1.34194   1.35036   1.35264   1.35893   1.36489
 Alpha virt. eigenvalues --    1.37230   1.37692   1.38730   1.38967   1.39932
 Alpha virt. eigenvalues --    1.40676   1.41107   1.41294   1.41817   1.43654
 Alpha virt. eigenvalues --    1.44502   1.44963   1.46430   1.47027   1.47319
 Alpha virt. eigenvalues --    1.47961   1.48890   1.49118   1.49654   1.50734
 Alpha virt. eigenvalues --    1.51474   1.51660   1.52862   1.52969   1.53832
 Alpha virt. eigenvalues --    1.53910   1.54549   1.55379   1.55850   1.56495
 Alpha virt. eigenvalues --    1.56783   1.57094   1.58143   1.58303   1.60024
 Alpha virt. eigenvalues --    1.60550   1.60686   1.61348   1.61696   1.62923
 Alpha virt. eigenvalues --    1.63504   1.64191   1.64449   1.64544   1.65204
 Alpha virt. eigenvalues --    1.65917   1.66437   1.66814   1.67736   1.67773
 Alpha virt. eigenvalues --    1.68563   1.68712   1.69120   1.69672   1.70446
 Alpha virt. eigenvalues --    1.70851   1.71186   1.71378   1.71600   1.71953
 Alpha virt. eigenvalues --    1.72240   1.72944   1.73684   1.74435   1.74632
 Alpha virt. eigenvalues --    1.75042   1.75575   1.75630   1.75851   1.76276
 Alpha virt. eigenvalues --    1.76696   1.77611   1.78040   1.78362   1.78592
 Alpha virt. eigenvalues --    1.79036   1.79179   1.79491   1.79984   1.80307
 Alpha virt. eigenvalues --    1.80570   1.80639   1.80847   1.81164   1.81583
 Alpha virt. eigenvalues --    1.82332   1.83162   1.83375   1.83931   1.84513
 Alpha virt. eigenvalues --    1.84944   1.85224   1.85804   1.86108   1.86380
 Alpha virt. eigenvalues --    1.87023   1.87214   1.88123   1.88832   1.89517
 Alpha virt. eigenvalues --    1.89636   1.90101   1.90749   1.90838   1.91141
 Alpha virt. eigenvalues --    1.91792   1.92333   1.92904   1.93154   1.93387
 Alpha virt. eigenvalues --    1.93805   1.94891   1.95281   1.95796   1.96283
 Alpha virt. eigenvalues --    1.96894   1.97946   1.98616   1.99509   2.00122
 Alpha virt. eigenvalues --    2.00910   2.02069   2.02253   2.02374   2.02952
 Alpha virt. eigenvalues --    2.03535   2.04088   2.04737   2.05096   2.05731
 Alpha virt. eigenvalues --    2.06159   2.07011   2.07844   2.08766   2.09092
 Alpha virt. eigenvalues --    2.09806   2.10200   2.10635   2.11388   2.11877
 Alpha virt. eigenvalues --    2.12509   2.13486   2.13879   2.14835   2.15420
 Alpha virt. eigenvalues --    2.15904   2.16763   2.17929   2.18394   2.19375
 Alpha virt. eigenvalues --    2.19815   2.20665   2.21358   2.21788   2.22870
 Alpha virt. eigenvalues --    2.23441   2.23669   2.24006   2.24897   2.25427
 Alpha virt. eigenvalues --    2.25796   2.26775   2.26998   2.27392   2.28305
 Alpha virt. eigenvalues --    2.29216   2.29394   2.30115   2.30608   2.30738
 Alpha virt. eigenvalues --    2.31806   2.32080   2.32447   2.33110   2.33488
 Alpha virt. eigenvalues --    2.33870   2.34443   2.35488   2.36049   2.36334
 Alpha virt. eigenvalues --    2.36903   2.37686   2.37801   2.38286   2.39055
 Alpha virt. eigenvalues --    2.39694   2.40111   2.40493   2.41426   2.41990
 Alpha virt. eigenvalues --    2.42523   2.42952   2.43746   2.44205   2.44431
 Alpha virt. eigenvalues --    2.45687   2.46106   2.46457   2.47078   2.47988
 Alpha virt. eigenvalues --    2.48787   2.49750   2.51076   2.51664   2.53121
 Alpha virt. eigenvalues --    2.53678   2.55247   2.56238   2.56497   2.57520
 Alpha virt. eigenvalues --    2.58023   2.59063   2.59328   2.60672   2.61586
 Alpha virt. eigenvalues --    2.63200   2.63823   2.64039   2.64498   2.65336
 Alpha virt. eigenvalues --    2.65650   2.66320   2.66612   2.66948   2.68011
 Alpha virt. eigenvalues --    2.68149   2.68808   2.69250   2.69850   2.71571
 Alpha virt. eigenvalues --    2.71983   2.72173   2.72542   2.73137   2.74295
 Alpha virt. eigenvalues --    2.74858   2.75600   2.75722   2.76317   2.77898
 Alpha virt. eigenvalues --    2.78861   2.79351   2.79831   2.80566   2.80717
 Alpha virt. eigenvalues --    2.81134   2.81871   2.82220   2.82512   2.82796
 Alpha virt. eigenvalues --    2.83910   2.84541   2.84931   2.85455   2.86088
 Alpha virt. eigenvalues --    2.86663   2.86872   2.87421   2.87773   2.88818
 Alpha virt. eigenvalues --    2.89792   2.90104   2.91251   2.94426   2.94817
 Alpha virt. eigenvalues --    2.96016   2.98443   2.98827   2.99407   3.00181
 Alpha virt. eigenvalues --    3.01748   3.02976   3.03479   3.05977   3.07012
 Alpha virt. eigenvalues --    3.08744   3.10706   3.11231   3.14608   3.15057
 Alpha virt. eigenvalues --    3.16232   3.16841   3.17241   3.19288   3.22558
 Alpha virt. eigenvalues --    3.22935   3.23741   3.23995   3.24411   3.28704
 Alpha virt. eigenvalues --    3.45584   3.47709   3.49473   3.49811   3.50716
 Alpha virt. eigenvalues --    3.53446   3.54638   3.56804   3.58487   3.60722
 Alpha virt. eigenvalues --    3.64108   3.70908   3.75550
          Condensed to atoms (all electrons):
 Mulliken charges:
               1
     1  N   -0.312055
     2  C    0.177670
     3  C    0.068328
     4  N   -0.257086
     5  C    0.131878
     6  H    0.028507
     7  N   -0.271978
     8  C    0.139124
     9  H    0.016765
    10  N   -0.289619
    11  C    0.227831
    12  C    0.097524
    13  N   -0.048303
    14  H    0.108447
    15  H    0.088202
    16  H    0.028942
    17  H    0.035352
    18  H    0.026542
    19  N   -0.276963
    20  C    0.207127
    21  C    0.179382
    22  N   -0.080068
    23  H    0.114384
    24  H    0.108593
    25  N   -0.286407
    26  C    0.187411
    27  N   -0.145189
    28  H    0.135996
    29  C    0.149246
    30  O   -0.323398
    31  C    0.028134
    32  N   -0.219050
    33  C    0.119357
    34  H    0.017241
    35  H    0.021377
    36  H    0.023550
    37  H    0.015179
    38  H    0.037888
    39  H    0.060145
    40  H    0.070673
    41  H    0.029497
    42  C   -0.110519
    43  O   -0.265543
    44  C    0.178657
    45  H    0.131631
    46  N   -0.127454
    47  O   -0.335036
    48  C    0.341109
    49  H    0.045340
    50  C    0.178247
    51  C    0.047051
    52  N   -0.280208
    53  H    0.035545
    54  H    0.030967
    55  H    0.018094
    56  H    0.121796
    57  H    0.119900
    58  N   -0.064681
    59  C    0.119427
    60  C    0.234070
    61  N   -0.293614
    62  H    0.042504
    63  C    0.165851
    64  N   -0.306944
    65  H    0.042478
    66  C    0.095857
    67  N   -0.242422
    68  C    0.016657
    69  C    0.183581
    70  N   -0.292518
 Sum of Mulliken charges =  -0.00000
 Mulliken charges with hydrogens summed into heavy atoms:
               1
     1  N   -0.312055
     2  C    0.268506
     3  C    0.068328
     4  N   -0.257086
     5  C    0.160386
     7  N   -0.271978
     8  C    0.155889
    10  N   -0.289619
    11  C    0.227831
    12  C    0.097524
    13  N    0.148345
    19  N   -0.276963
    20  C    0.207127
    21  C    0.239489
    22  N    0.142909
    25  N   -0.286407
    26  C    0.187411
    27  N   -0.009193
    29  C    0.149246
    30  O   -0.323398
    31  C    0.028134
    32  N   -0.219050
    33  C    0.136597
    42  C   -0.081022
    43  O   -0.265543
    44  C    0.178657
    46  N    0.004177
    47  O   -0.335036
    48  C    0.341109
    50  C    0.223587
    51  C    0.215757
    52  N   -0.280208
    58  N    0.177015
    59  C    0.119427
    60  C    0.234070
    61  N   -0.293614
    63  C    0.208355
    64  N   -0.306944
    66  C    0.138335
    67  N   -0.242422
    68  C    0.016657
    69  C    0.268187
    70  N   -0.292518
 Electronic spatial extent (au):  <R**2>=          22017.2318
 Charge=             -0.0000 electrons
 Dipole moment (field-independent basis, Debye):
    X=             -5.7168    Y=              6.0060    Z=             -4.5068  Tot=              9.4374
 Quadrupole moment (field-independent basis, Debye-Ang):
   XX=           -144.6092   YY=           -228.8527   ZZ=           -259.5760
   XY=            -12.9137   XZ=              7.5568   YZ=             11.4944
 Traceless Quadrupole moment (field-independent basis, Debye-Ang):
   XX=             66.4035   YY=            -17.8401   ZZ=            -48.5634
   XY=            -12.9137   XZ=              7.5568   YZ=             11.4944
 Octapole moment (field-independent basis, Debye-Ang**2):
  XXX=             62.5538  YYY=             66.4178  ZZZ=            -17.0793  XYY=            -62.0032
  XXY=             52.9366  XXZ=             32.0351  XZZ=            -22.4809  YZZ=             34.1529
  YYZ=            -76.0247  XYZ=             25.5878
 Hexadecapole moment (field-independent basis, Debye-Ang**3):
 XXXX=         -15738.9916 YYYY=          -4125.1256 ZZZZ=          -3277.6412 XXXY=           -571.4536
 XXXZ=            -20.9442 YYYX=            -53.5315 YYYZ=            109.7924 ZZZX=             18.9332
 ZZZY=             38.2718 XXYY=          -3976.7125 XXZZ=          -4081.3259 YYZZ=          -1302.0624
 XXYZ=            -76.2328 YYXZ=            191.0652 ZZXY=            -62.2082
 N-N= 5.638545822481D+03 E-N=-1.605784046313D+04  KE= 2.038128704137D+03
 No NMR shielding tensors so no spin-rotation constants.
 Leave Link  601 at Sat Jan 20 19:30:44 2018, MaxMem=  4294967296 cpu:              48.1 elap:               1.7
 (Enter /share/apps/g16/l9999.exe)
 1\1\GINC-COMPUTE-0-3\SP\RwB97XD\CC-pVDZ\C23H27N17O3\SATYA\20-Jan-2018\
 0\\#p wb97xd/cc-pvdz sp scf=(maxcycles=20)\\Base pair stacking\\0,1\N,
 0,2.09312,6.93322,-6.98938\C,0,2.39023,8.37034,-6.83317\C,0,1.13591,4.
 95603,-6.8808\N,0,2.30358,4.78241,-7.60959\C,0,2.83353,5.98054,-7.6458
 4\H,0,3.77214,6.22855,-8.14227\N,0,-0.90552,4.55867,-5.76833\C,0,-0.90
 707,5.86126,-5.46697\H,0,-1.76152,6.20272,-4.88423\N,0,-0.0158,6.80099
 ,-5.77594\C,0,0.99264,6.27649,-6.49174\C,0,0.12299,4.06167,-6.48961\N,
 0,0.12632,2.76164,-6.79142\H,0,0.8675,2.35067,-7.32339\H,0,-0.61151,2.
 1545,-6.49625\H,0,2.44861,8.79993,-7.73441\H,0,1.66302,8.80618,-6.3037
 1\H,0,3.2614,8.48271,-6.35522\N,0,0.44351,5.83716,-3.15073\C,0,-0.3609
 5,4.74023,-2.95667\C,0,0.02064,7.24373,-2.99765\N,0,-3.45144,3.38392,-
 2.13752\H,0,-3.8579,2.47501,-2.04861\H,0,-4.04611,4.1669,-1.95302\N,0,
 -1.66239,4.76288,-2.59642\C,0,-2.16677,3.54651,-2.48836\N,0,-1.45294,2
 .3948,-2.71529\H,0,-1.92058,1.50769,-2.6089\C,0,-0.11293,2.34774,-3.08
 682\O,0,0.43806,1.25477,-3.26723\C,0,0.44266,3.64689,-3.2069\N,0,1.725
 8,4.04931,-3.55114\C,0,1.67925,5.35311,-3.5047\H,0,2.52063,6.01258,-3.
 72024\H,0,0.13985,7.72565,-3.86503\H,0,-0.94179,7.27306,-2.73092\H,0,0
 .57443,7.68515,-2.29247\H,0,-4.98424,-2.54964,-2.53997\H,0,-4.31192,-2
 .77048,-0.92632\H,0,-4.50442,-1.14585,-1.58577\H,0,-0.7046,-4.4624,-3.
 62285\C,0,-1.12664,-3.50533,-3.31603\O,0,0.78746,-2.25172,-3.94197\C,0
 ,-0.35019,-2.31403,-3.4765\H,0,-0.46027,-0.29599,-3.15445\N,0,-0.97755
 ,-1.15833,-3.05694\O,0,-2.70562,0.02226,-2.17537\C,0,-2.2349,-1.04811,
 -2.51799\H,0,-2.98716,-4.30614,-2.65045\C,0,-2.35619,-3.4299,-2.79342\
 C,0,-4.26895,-2.17237,-1.82437\N,0,-2.92094,-2.24039,-2.39532\H,0,-7.1
 1103,0.30343,-3.30522\H,0,-5.87973,1.15529,-2.65688\H,0,-6.22027,-0.34
 022,-2.0987\H,0,-0.94125,-0.71924,-7.29939\H,0,-2.11423,-1.93887,-7.08
 331\N,0,-1.77781,-1.02691,-6.84591\C,0,-2.41712,-0.25612,-5.96367\C,0,
 -4.14321,0.26664,-4.41155\N,0,-3.66836,1.48699,-4.11207\H,0,-2.10282,2
 .70999,-4.61604\C,0,-2.55598,1.73679,-4.7999\N,0,-1.9141,0.9661,-5.683
 99\H,0,-6.14195,-2.27147,-4.28826\C,0,-5.33658,-1.57041,-4.50923\N,0,-
 4.35954,-1.79948,-5.3522\C,0,-3.59563,-0.64257,-5.29982\C,0,-6.19372,0
 .24125,-2.91195\N,0,-5.26812,-0.33921,-3.90409\\Version=EM64L-G16RevA.
 03\State=1-A\HF=-2048.7024249\RMSD=7.000e-09\Dipole=-3.6445972,-0.3968
 704,0.5878033\Quadrupole=-4.7074377,19.36743,-14.6599923,36.4035656,-2
 1.799964,-6.9764189\PG=C01 [X(C23H27N17O3)]\\@


 Any fool can criticize, condemn, and complain -- and most do.
 -- Dale Carnegie
 Job cpu time:       0 days  6 hours 34 minutes 45.3 seconds.
 Elapsed time:       0 days  0 hours 12 minutes 43.6 seconds.
 File lengths (MBytes):  RWF=    298 Int=      0 D2E=      0 Chk=     33 Scr=      1
 Normal termination of Gaussian 16 at Sat Jan 20 19:30:44 2018.
