 Entering Gaussian System, Link 0=g16
 Input=str25.-10.-1.5.com
 Output=str25.-10.-1.5.log
 Initial command:
 /share/apps/g16/l1.exe "/state/partition1/scr/Gau-14206.inp" -scrdir="/state/partition1/scr/"
 Entering Link 1 = /share/apps/g16/l1.exe PID=     14207.
  
 Copyright (c) 1988,1990,1992,1993,1995,1998,2003,2009,2016,
            Gaussian, Inc.  All Rights Reserved.
  
 This is part of the Gaussian(R) 16 program.  It is based on
 the Gaussian(R) 09 system (copyright 2009, Gaussian, Inc.),
 the Gaussian(R) 03 system (copyright 2003, Gaussian, Inc.),
 the Gaussian(R) 98 system (copyright 1998, Gaussian, Inc.),
 the Gaussian(R) 94 system (copyright 1995, Gaussian, Inc.),
 the Gaussian 92(TM) system (copyright 1992, Gaussian, Inc.),
 the Gaussian 90(TM) system (copyright 1990, Gaussian, Inc.),
 the Gaussian 88(TM) system (copyright 1988, Gaussian, Inc.),
 the Gaussian 86(TM) system (copyright 1986, Carnegie Mellon
 University), and the Gaussian 82(TM) system (copyright 1983,
 Carnegie Mellon University). Gaussian is a federally registered
 trademark of Gaussian, Inc.
  
 This software contains proprietary and confidential information,
 including trade secrets, belonging to Gaussian, Inc.
  
 This software is provided under written license and may be
 used, copied, transmitted, or stored only in accord with that
 written license.
  
 The following legend is applicable only to US Government
 contracts under FAR:
  
                    RESTRICTED RIGHTS LEGEND
  
 Use, reproduction and disclosure by the US Government is
 subject to restrictions as set forth in subparagraphs (a)
 and (c) of the Commercial Computer Software - Restricted
 Rights clause in FAR 52.227-19.
  
 Gaussian, Inc.
 340 Quinnipiac St., Bldg. 40, Wallingford CT 06492
  
  
 ---------------------------------------------------------------
 Warning -- This program may not be used in any manner that
 competes with the business of Gaussian, Inc. or will provide
 assistance to any competitor of Gaussian, Inc.  The licensee
 of this program is prohibited from giving any competitor of
 Gaussian, Inc. access to this program.  By using this program,
 the user acknowledges that Gaussian, Inc. is engaged in the
 business of creating and licensing software in the field of
 computational chemistry and represents and warrants to the
 licensee that it is not a competitor of Gaussian, Inc. and that
 it will not use this program in any manner prohibited above.
 ---------------------------------------------------------------
  

 Cite this work as:
 Gaussian 16, Revision A.03,
 M. J. Frisch, G. W. Trucks, H. B. Schlegel, G. E. Scuseria, 
 M. A. Robb, J. R. Cheeseman, G. Scalmani, V. Barone, 
 G. A. Petersson, H. Nakatsuji, X. Li, M. Caricato, A. V. Marenich, 
 J. Bloino, B. G. Janesko, R. Gomperts, B. Mennucci, H. P. Hratchian, 
 J. V. Ortiz, A. F. Izmaylov, J. L. Sonnenberg, D. Williams-Young, 
 F. Ding, F. Lipparini, F. Egidi, J. Goings, B. Peng, A. Petrone, 
 T. Henderson, D. Ranasinghe, V. G. Zakrzewski, J. Gao, N. Rega, 
 G. Zheng, W. Liang, M. Hada, M. Ehara, K. Toyota, R. Fukuda, 
 J. Hasegawa, M. Ishida, T. Nakajima, Y. Honda, O. Kitao, H. Nakai, 
 T. Vreven, K. Throssell, J. A. Montgomery, Jr., J. E. Peralta, 
 F. Ogliaro, M. J. Bearpark, J. J. Heyd, E. N. Brothers, K. N. Kudin, 
 V. N. Staroverov, T. A. Keith, R. Kobayashi, J. Normand, 
 K. Raghavachari, A. P. Rendell, J. C. Burant, S. S. Iyengar, 
 J. Tomasi, M. Cossi, J. M. Millam, M. Klene, C. Adamo, R. Cammi, 
 J. W. Ochterski, R. L. Martin, K. Morokuma, O. Farkas, 
 J. B. Foresman, and D. J. Fox, Gaussian, Inc., Wallingford CT, 2016.
 
 ******************************************
 Gaussian 16:  EM64L-G16RevA.03 25-Dec-2016
                20-Jan-2018 
 ******************************************
 %nprocshared=32
 Will use up to   32 processors via shared memory.
 %mem=32GB
 %chk=allatoms_t.chk
 ---------------------------------------
 #p wb97xd/cc-pvdz sp scf=(maxcycles=20)
 ---------------------------------------
 1/38=1,172=1/1;
 2/12=2,17=6,18=5,40=1/2;
 3/5=16,11=2,25=1,30=1,74=-58/1,2,3;
 4//1;
 5/5=2,7=20,38=5/2;
 6/7=2,8=2,9=2,10=2,28=1/1;
 99/5=1,9=1/99;
 Leave Link    1 at Sat Jan 20 11:18:35 2018, MaxMem=  4294967296 cpu:               2.7 elap:               0.1
 (Enter /share/apps/g16/l101.exe)
 ------------------
 Base pair stacking
 ------------------
 Symbolic Z-matrix:
 Charge =  0 Multiplicity = 1
 N                     3.6083    7.6024   -6.90268 
 C                     3.83531   9.06021  -6.86712 
 C                     2.67609   5.61264  -6.80702 
 N                     4.00905   5.40165  -7.12861 
 C                     4.51733   6.60885  -7.17337 
 H                     5.55946   6.83473  -7.40117 
 N                     0.39875   5.26632  -6.30032 
 C                     0.29836   6.59552  -6.19668 
 H                    -0.69328   6.96868  -5.94437 
 N                     1.2346    7.52857  -6.35718 
 C                     2.41416   6.96417  -6.6646 
 C                     1.5989    4.7294   -6.61086 
 N                     1.70112   3.40277  -6.71476 
 H                     2.56998   2.96196  -6.94273 
 H                     0.91312   2.80463  -6.56836 
 H                     4.15654   9.37083  -7.76183 
 H                     2.98034   9.526    -6.64086 
 H                     4.5237    9.27566  -6.17452 
 N                     0.80898   6.33743  -3.22785 
 C                    -0.01441   5.24183  -3.1292 
 C                     0.36393   7.74519  -3.19861 
 N                    -3.19525   3.89127  -2.7828 
 H                    -3.60908   2.98294  -2.72892 
 H                    -3.81374   4.67562  -2.72806 
 N                    -1.35756   5.26704  -2.9901 
 C                    -1.87055   4.05137  -2.92222 
 N                    -1.12681   2.89796  -2.98552 
 H                    -1.60392   2.01156  -2.92533 
 C                     0.25629   2.84826  -3.12847 
 O                     0.83162   1.75392  -3.175 
 C                     0.82161   4.14663  -3.20278 
 N                     2.14326   4.54662  -3.34476 
 C                     2.08718   5.85083  -3.35465 
 H                     2.95136   6.50881  -3.45226 
 H                     0.6241    8.19654  -4.05149 
 H                    -0.62942   7.77643  -3.09589 
 H                     0.79256   8.21609  -2.42832 
 H                    -4.62901  -2.06495  -3.21452 
 H                    -4.23254  -2.22225  -1.50492 
 H                    -4.31637  -0.62397  -2.24643 
 H                    -0.22554  -3.98125  -3.50403 
 C                    -0.69435  -3.01717  -3.3066 
 O                     1.29454  -1.77167  -3.65325 
 C                     0.09567  -1.82626  -3.38024 
 H                    -0.07003   0.20112  -3.15527 
 N                    -0.59467  -0.66125  -3.11295 
 O                    -2.44704   0.53648  -2.57317 
 C                    -1.92407  -0.54174  -2.79366 
 H                    -2.63782  -3.80831  -2.92869 
 C                    -1.99357  -2.93279  -2.99754 
 C                    -4.0427   -1.6565   -2.4049 
 N                    -2.61867  -1.73426  -2.7423 
 H                    -6.22884   1.07599  -5.20558 
 H                    -5.25263   2.06326  -4.34861 
 H                    -5.73353   0.63877  -3.71329 
 H                     0.85778  -0.16181  -7.0258 
 H                    -0.31774  -1.39771  -6.99714 
 N                    -0.07372  -0.44748  -6.80032 
 C                    -0.95224   0.40026  -6.26113 
 C                    -3.06599   1.03763  -5.3737 
 N                    -2.7105    2.30799  -5.12028 
 H                    -1.07451   3.52849  -5.30617 
 C                    -1.44548   2.51901  -5.4782 
 N                    -0.56397   1.67125  -6.0184 
 H                    -4.99287  -1.55567  -5.4926 
 C                    -4.16317  -0.8516   -5.562 
 N                    -2.97776  -1.14154  -6.03995 
 C                    -2.27228   0.04762  -5.92635 
 C                    -5.46994   1.10974  -4.55524 
 N                    -4.28674   0.44989  -5.14058 
 
 ITRead=  0  0  0  0  0  0  0  0  0  0  0  0  0  0  0  0  0  0  0  0
 ITRead=  0  0  0  0  0  0  0  0  0  0  0  0  0  0  0  0  0  0  0  0
 ITRead=  0  0  0  0  0  0  0  0  0  0  0  0  0  0  0  0  0  0  0  0
 ITRead=  0  0  0  0  0  0  0  0  0  0
 MicOpt= -1 -1 -1 -1 -1 -1 -1 -1 -1 -1 -1 -1 -1 -1 -1 -1 -1 -1 -1 -1
 MicOpt= -1 -1 -1 -1 -1 -1 -1 -1 -1 -1 -1 -1 -1 -1 -1 -1 -1 -1 -1 -1
 MicOpt= -1 -1 -1 -1 -1 -1 -1 -1 -1 -1 -1 -1 -1 -1 -1 -1 -1 -1 -1 -1
 MicOpt= -1 -1 -1 -1 -1 -1 -1 -1 -1 -1
 NAtoms=     70 NQM=       70 NQMF=       0 NMMI=      0 NMMIF=      0
                NMic=       0 NMicF=      0.
                    Isotopes and Nuclear Properties:
 (Nuclear quadrupole moments (NQMom) in fm**2, nuclear magnetic moments (NMagM)
  in nuclear magnetons)

  Atom         1           2           3           4           5           6           7           8           9          10
 IAtWgt=          14          12          12          14          12           1          14          12           1          14
 AtmWgt=  14.0030740  12.0000000  12.0000000  14.0030740  12.0000000   1.0078250  14.0030740  12.0000000   1.0078250  14.0030740
 NucSpn=           2           0           0           2           0           1           2           0           1           2
 AtZEff=  -0.0000000  -0.0000000  -0.0000000  -0.0000000  -0.0000000  -0.0000000  -0.0000000  -0.0000000  -0.0000000  -0.0000000
 NQMom=    2.0440000   0.0000000   0.0000000   2.0440000   0.0000000   0.0000000   2.0440000   0.0000000   0.0000000   2.0440000
 NMagM=    0.4037610   0.0000000   0.0000000   0.4037610   0.0000000   2.7928460   0.4037610   0.0000000   2.7928460   0.4037610
 AtZNuc=   7.0000000   6.0000000   6.0000000   7.0000000   6.0000000   1.0000000   7.0000000   6.0000000   1.0000000   7.0000000

  Atom        11          12          13          14          15          16          17          18          19          20
 IAtWgt=          12          12          14           1           1           1           1           1          14          12
 AtmWgt=  12.0000000  12.0000000  14.0030740   1.0078250   1.0078250   1.0078250   1.0078250   1.0078250  14.0030740  12.0000000
 NucSpn=           0           0           2           1           1           1           1           1           2           0
 AtZEff=  -0.0000000  -0.0000000  -0.0000000  -0.0000000  -0.0000000  -0.0000000  -0.0000000  -0.0000000  -0.0000000  -0.0000000
 NQMom=    0.0000000   0.0000000   2.0440000   0.0000000   0.0000000   0.0000000   0.0000000   0.0000000   2.0440000   0.0000000
 NMagM=    0.0000000   0.0000000   0.4037610   2.7928460   2.7928460   2.7928460   2.7928460   2.7928460   0.4037610   0.0000000
 AtZNuc=   6.0000000   6.0000000   7.0000000   1.0000000   1.0000000   1.0000000   1.0000000   1.0000000   7.0000000   6.0000000

  Atom        21          22          23          24          25          26          27          28          29          30
 IAtWgt=          12          14           1           1          14          12          14           1          12          16
 AtmWgt=  12.0000000  14.0030740   1.0078250   1.0078250  14.0030740  12.0000000  14.0030740   1.0078250  12.0000000  15.9949146
 NucSpn=           0           2           1           1           2           0           2           1           0           0
 AtZEff=  -0.0000000  -0.0000000  -0.0000000  -0.0000000  -0.0000000  -0.0000000  -0.0000000  -0.0000000  -0.0000000  -0.0000000
 NQMom=    0.0000000   2.0440000   0.0000000   0.0000000   2.0440000   0.0000000   2.0440000   0.0000000   0.0000000   0.0000000
 NMagM=    0.0000000   0.4037610   2.7928460   2.7928460   0.4037610   0.0000000   0.4037610   2.7928460   0.0000000   0.0000000
 AtZNuc=   6.0000000   7.0000000   1.0000000   1.0000000   7.0000000   6.0000000   7.0000000   1.0000000   6.0000000   8.0000000

  Atom        31          32          33          34          35          36          37          38          39          40
 IAtWgt=          12          14          12           1           1           1           1           1           1           1
 AtmWgt=  12.0000000  14.0030740  12.0000000   1.0078250   1.0078250   1.0078250   1.0078250   1.0078250   1.0078250   1.0078250
 NucSpn=           0           2           0           1           1           1           1           1           1           1
 AtZEff=  -0.0000000  -0.0000000  -0.0000000  -0.0000000  -0.0000000  -0.0000000  -0.0000000  -0.0000000  -0.0000000  -0.0000000
 NQMom=    0.0000000   2.0440000   0.0000000   0.0000000   0.0000000   0.0000000   0.0000000   0.0000000   0.0000000   0.0000000
 NMagM=    0.0000000   0.4037610   0.0000000   2.7928460   2.7928460   2.7928460   2.7928460   2.7928460   2.7928460   2.7928460
 AtZNuc=   6.0000000   7.0000000   6.0000000   1.0000000   1.0000000   1.0000000   1.0000000   1.0000000   1.0000000   1.0000000

  Atom        41          42          43          44          45          46          47          48          49          50
 IAtWgt=           1          12          16          12           1          14          16          12           1          12
 AtmWgt=   1.0078250  12.0000000  15.9949146  12.0000000   1.0078250  14.0030740  15.9949146  12.0000000   1.0078250  12.0000000
 NucSpn=           1           0           0           0           1           2           0           0           1           0
 AtZEff=  -0.0000000  -0.0000000  -0.0000000  -0.0000000  -0.0000000  -0.0000000  -0.0000000  -0.0000000  -0.0000000  -0.0000000
 NQMom=    0.0000000   0.0000000   0.0000000   0.0000000   0.0000000   2.0440000   0.0000000   0.0000000   0.0000000   0.0000000
 NMagM=    2.7928460   0.0000000   0.0000000   0.0000000   2.7928460   0.4037610   0.0000000   0.0000000   2.7928460   0.0000000
 AtZNuc=   1.0000000   6.0000000   8.0000000   6.0000000   1.0000000   7.0000000   8.0000000   6.0000000   1.0000000   6.0000000

  Atom        51          52          53          54          55          56          57          58          59          60
 IAtWgt=          12          14           1           1           1           1           1          14          12          12
 AtmWgt=  12.0000000  14.0030740   1.0078250   1.0078250   1.0078250   1.0078250   1.0078250  14.0030740  12.0000000  12.0000000
 NucSpn=           0           2           1           1           1           1           1           2           0           0
 AtZEff=  -0.0000000  -0.0000000  -0.0000000  -0.0000000  -0.0000000  -0.0000000  -0.0000000  -0.0000000  -0.0000000  -0.0000000
 NQMom=    0.0000000   2.0440000   0.0000000   0.0000000   0.0000000   0.0000000   0.0000000   2.0440000   0.0000000   0.0000000
 NMagM=    0.0000000   0.4037610   2.7928460   2.7928460   2.7928460   2.7928460   2.7928460   0.4037610   0.0000000   0.0000000
 AtZNuc=   6.0000000   7.0000000   1.0000000   1.0000000   1.0000000   1.0000000   1.0000000   7.0000000   6.0000000   6.0000000

  Atom        61          62          63          64          65          66          67          68          69          70
 IAtWgt=          14           1          12          14           1          12          14          12          12          14
 AtmWgt=  14.0030740   1.0078250  12.0000000  14.0030740   1.0078250  12.0000000  14.0030740  12.0000000  12.0000000  14.0030740
 NucSpn=           2           1           0           2           1           0           2           0           0           2
 AtZEff=  -0.0000000  -0.0000000  -0.0000000  -0.0000000  -0.0000000  -0.0000000  -0.0000000  -0.0000000  -0.0000000  -0.0000000
 NQMom=    2.0440000   0.0000000   0.0000000   2.0440000   0.0000000   0.0000000   2.0440000   0.0000000   0.0000000   2.0440000
 NMagM=    0.4037610   2.7928460   0.0000000   0.4037610   2.7928460   0.0000000   0.4037610   0.0000000   0.0000000   0.4037610
 AtZNuc=   7.0000000   1.0000000   6.0000000   7.0000000   1.0000000   6.0000000   7.0000000   6.0000000   6.0000000   7.0000000
 Leave Link  101 at Sat Jan 20 11:18:35 2018, MaxMem=  4294967296 cpu:               7.3 elap:               0.3
 (Enter /share/apps/g16/l202.exe)
 Stoichiometry    C23H27N17O3
 Framework group  C1[X(C23H27N17O3)]
 Deg. of freedom   204
 Full point group                 C1      NOp   1
 Largest Abelian subgroup         C1      NOp   1
 Largest concise Abelian subgroup C1      NOp   1
                         Standard orientation:                         
 ---------------------------------------------------------------------
 Center     Atomic      Atomic             Coordinates (Angstroms)
 Number     Number       Type             X           Y           Z
 ---------------------------------------------------------------------
      1          7           0       -6.603373   -1.098626    0.480893
      2          6           0       -7.920137   -0.432224    0.474060
      3          6           0       -4.450391   -1.507795    0.666800
      4          7           0       -5.040494   -2.702405    0.280272
      5          6           0       -6.313970   -2.408090    0.183736
      6          1           0       -7.093559   -3.114465   -0.103014
      7          7           0       -2.866708    0.121594    1.299255
      8          6           0       -3.891615    0.976346    1.380232
      9          1           0       -3.628653    1.990956    1.676330
     10          7           0       -5.186485    0.766917    1.151452
     11          6           0       -5.401146   -0.510155    0.794490
     12          6           0       -3.115515   -1.156036    0.937546
     13          7           0       -2.093745   -2.010758    0.856143
     14          1           0       -2.231448   -2.966051    0.592223
     15          1           0       -1.156306   -1.725494    1.056096
     16          1           0       -8.528600   -0.886640    1.124796
     17          1           0       -7.810713    0.526447    0.735027
     18          1           0       -8.317106   -0.483231   -0.442351
     19          7           0       -3.337548    1.809658   -1.472818
     20          6           0       -1.980128    1.822067   -1.259978
     21          6           0       -4.262001    2.915829   -1.152688
     22          7           0        0.874378    3.454302   -0.142233
     23          1           0        1.853166    3.263896   -0.071934
     24          1           0        0.561382    4.347235    0.182474
     25          7           0       -1.268507    2.838674   -0.726928
     26          6           0        0.019177    2.553341   -0.648990
     27          7           0        0.569851    1.364009   -1.061005
     28          1           0        1.564970    1.232905   -0.963471
     29          6           0       -0.143253    0.304114   -1.612346
     30          8           0        0.450294   -0.727015   -1.951794
     31          6           0       -1.528044    0.595842   -1.702468
     32          7           0       -2.580471   -0.170957   -2.183431
     33          6           0       -3.631208    0.587894   -2.027534
     34          1           0       -4.648042    0.304454   -2.301364
     35          1           0       -4.946223    2.601073   -0.495741
     36          1           0       -3.746153    3.674602   -0.757167
     37          1           0       -4.718071    3.223359   -1.987099
     38          1           0        6.460966    0.957200    0.380384
     39          1           0        6.733515    1.360552   -1.313041
     40          1           0        5.304319    1.973341   -0.480425
     41          1           0        5.677817   -3.318850   -1.680840
     42          6           0        5.167040   -2.366788   -1.536283
     43          8           0        3.024041   -3.223180   -2.085163
     44          6           0        3.753449   -2.291690   -1.745904
     45          1           0        2.210495   -0.949109   -1.674456
     46          7           0        3.206998   -1.041635   -1.536109
     47          8           0        3.298367    1.162362   -0.996439
     48          6           0        3.870384    0.098665   -1.157731
     49          1           0        6.917051   -1.275898   -0.994788
     50          6           0        5.841552   -1.271712   -1.166888
     51          6           0        5.981936    1.137368   -0.570482
     52          7           0        5.230731   -0.054125   -0.975182
     53          1           0        4.295061    2.926039    3.177134
     54          1           0        3.142912    3.175917    2.049216
     55          1           0        4.702670    3.007165    1.598940
     56          1           0        1.231120   -3.539147    1.207572
     57          1           0        2.874729   -3.389609    1.639203
     58          7           0        2.001675   -2.944440    1.437157
     59          6           0        1.871832   -1.616634    1.472612
     60          6           0        2.634641    0.615432    1.785207
     61          7           0        1.450133    1.185735    1.509337
     62          1           0       -0.454300    0.634704    0.989591
     63          6           0        0.539347    0.256636    1.226221
     64          7           0        0.667432   -1.073728    1.190191
     65          1           0        5.763879    0.470993    2.584716
     66          6           0        4.732798    0.249949    2.307329
     67          7           0        4.253250   -0.955474    2.121084
     68          6           0        2.923781   -0.738044    1.789505
     69          6           0        4.002677    2.705818    2.246530
     70          7           0        3.808062    1.248330    2.120677
 ---------------------------------------------------------------------
 Rotational constants (GHZ):           0.1718315           0.0514761           0.0486260
 Leave Link  202 at Sat Jan 20 11:18:35 2018, MaxMem=  4294967296 cpu:               0.3 elap:               0.0
 (Enter /share/apps/g16/l301.exe)
 Standard basis: CC-pVDZ (5D, 7F)
 Ernie: Thresh=  0.10000D-02 Tol=  0.10000D-05 Strict=F.
 Ernie:  86 primitive shells out of 1081 were deleted.
 There are   780 symmetry adapted cartesian basis functions of A   symmetry.
 There are   737 symmetry adapted basis functions of A   symmetry.
   737 basis functions,  1608 primitive gaussians,   780 cartesian basis functions
   154 alpha electrons      154 beta electrons
       nuclear repulsion energy      5572.9529898651 Hartrees.
 IExCor= 4639 DFT=T Ex+Corr=wB97XD ExCW=0 ScaHFX=  1.000000
 ScaDFX=  1.000000  1.000000  1.000000  1.000000 ScalE2=  1.000000  1.000000
 IRadAn=      5 IRanWt=     -1 IRanGd=            0 ICorTp=0 IEmpDi=121
 HFx  wShort=  0.000000 wLong=  0.200000 cFull=  0.222036 cShort=  0.000000 cLong=  0.777964
 DFx  wShort=  0.000000 wLong=  0.200000 cFull=  0.000000 cShort=  0.000000 cLong=  1.000000
 NAtoms=   70 NActive=   70 NUniq=   70 SFac= 1.00D+00 NAtFMM=   60 NAOKFM=T Big=T
 Integral buffers will be    131072 words long.
 Raffenetti 2 integral format.
 Two-electron integral symmetry is turned on.
 R6Disp:  Grimme-D2 Dispersion energy=       -0.0772349660 Hartrees.
 Nuclear repulsion after empirical dispersion term =     5572.8757548991 Hartrees.
 Leave Link  301 at Sat Jan 20 11:18:35 2018, MaxMem=  4294967296 cpu:               2.1 elap:               0.1
 (Enter /share/apps/g16/l302.exe)
 NPDir=0 NMtPBC=     1 NCelOv=     1 NCel=       1 NClECP=     1 NCelD=      1
         NCelK=      1 NCelE2=     1 NClLst=     1 CellRange=     0.0.
 One-electron integrals computed using PRISM.
 One-electron integral symmetry used in STVInt
 NBasis=   737 RedAO= T EigKep=  6.90D-04  NBF=   737
 NBsUse=   737 1.00D-06 EigRej= -1.00D+00 NBFU=   737
 Precomputing XC quadrature grid using
 IXCGrd= 4 IRadAn=           5 IRanWt=          -1 IRanGd=           0 AccXCQ= 0.00D+00.
 Generated NRdTot=       0 NPtTot=           0 NUsed=           0 NTot=          32
 NSgBfM=   766   766   766   766   766 MxSgAt=    70 MxSgA2=    70.
 Leave Link  302 at Sat Jan 20 11:18:39 2018, MaxMem=  4294967296 cpu:             134.6 elap:               4.2
 (Enter /share/apps/g16/l303.exe)
 DipDrv:  MaxL=1.
 Leave Link  303 at Sat Jan 20 11:18:40 2018, MaxMem=  4294967296 cpu:              12.4 elap:               0.4
 (Enter /share/apps/g16/l401.exe)
 ExpMin= 1.22D-01 ExpMax= 1.17D+04 ExpMxC= 4.01D+02 IAcc=3 IRadAn=         5 AccDes= 0.00D+00
 Harris functional with IExCor= 4639 and IRadAn=       5 diagonalized for initial guess.
 HarFok:  IExCor= 4639 AccDes= 0.00D+00 IRadAn=         5 IDoV= 1 UseB2=F ITyADJ=14
 ICtDFT=  3500011 ScaDFX=  1.000000  1.000000  1.000000  1.000000
 FoFCou: FMM=F IPFlag=           0 FMFlag=      100000 FMFlg1=        2001
         NFxFlg=           0 DoJE=T BraDBF=F KetDBF=T FulRan=T
         wScrn=  0.000000 ICntrl=       500 IOpCl=  0 I1Cent=   200000004 NGrid=           0
         NMat0=    1 NMatS0=      1 NMatT0=    0 NMatD0=    1 NMtDS0=    0 NMtDT0=    0
 Petite list used in FoFCou.
 Harris En= -1963.86941883122    
 JPrj=0 DoOrth=F DoCkMO=F.
 Leave Link  401 at Sat Jan 20 11:18:53 2018, MaxMem=  4294967296 cpu:             409.4 elap:              12.8
 (Enter /share/apps/g16/l502.exe)
 Integral symmetry usage will be decided dynamically.
 Closed shell SCF:
 Using DIIS extrapolation, IDIIS=  1040.
 NGot=  4294967296 LenX=  4293717438 LenY=  4293108258
 Requested convergence on RMS density matrix=1.00D-08 within  20 cycles.
 Requested convergence on MAX density matrix=1.00D-06.
 Requested convergence on             energy=1.00D-06.
 No special actions if energy rises.
 Fock matrices will be formed incrementally for  20 cycles.
 Integral accuracy reduced to 1.0D-05 until final iterations.

 Cycle   1  Pass 0  IDiag  1:
 FoFJK:  IHMeth= 1 ICntrl=       0 DoSepK=T KAlg= 0 I1Cent=           0 FoldK=F
 IRaf=         1 NMat=       1 IRICut=       1 DoRegI=T DoRafI=F ISym2E= 0 IDoP0=0 IntGTp=1.
 FoFCou: FMM=T IPFlag=           0 FMFlag=      100000 FMFlg1=        2001
         NFxFlg=           0 DoJE=T BraDBF=F KetDBF=F FulRan=T
         wScrn=  0.000000 ICntrl=       500 IOpCl=  0 I1Cent=           0 NGrid=           0
         NMat0=    1 NMatS0=      1 NMatT0=    0 NMatD0=    1 NMtDS0=    0 NMtDT0=    0
 Symmetry not used in FoFCou.
 FMM levels:  10  Number of levels for PrismC:   9
 E= -2048.30690795130    
 DIIS: error= 2.43D-02 at cycle   1 NSaved=   1.
 NSaved= 1 IEnMin= 1 EnMin= -2048.30690795130     IErMin= 1 ErrMin= 2.43D-02
 ErrMax= 2.43D-02  0.00D+00 EMaxC= 1.00D-01 BMatC= 8.31D-01 BMatP= 8.31D-01
 IDIUse=3 WtCom= 7.57D-01 WtEn= 2.43D-01
 Coeff-Com:  0.100D+01
 Coeff-En:   0.100D+01
 Coeff:      0.100D+01
 Gap=     0.252 Goal=   None    Shift=    0.000
 GapD=    0.252 DampG=1.000 DampE=0.500 DampFc=0.5000 IDamp=-1.
 Damping current iteration by 5.00D-01
 RMSDP=1.59D-03 MaxDP=1.29D-01              OVMax= 1.94D-01

 Cycle   2  Pass 0  IDiag  1:
 RMSU=  7.93D-04    CP:  9.97D-01
 E= -2048.50275009993     Delta-E=       -0.195842148634 Rises=F Damp=T
 DIIS: error= 1.24D-02 at cycle   2 NSaved=   2.
 NSaved= 2 IEnMin= 2 EnMin= -2048.50275009993     IErMin= 2 ErrMin= 1.24D-02
 ErrMax= 1.24D-02  0.00D+00 EMaxC= 1.00D-01 BMatC= 1.45D-01 BMatP= 8.31D-01
 IDIUse=3 WtCom= 8.76D-01 WtEn= 1.24D-01
 Coeff-Com: -0.194D+00 0.119D+01
 Coeff-En:   0.000D+00 0.100D+01
 Coeff:     -0.170D+00 0.117D+01
 Gap=     0.359 Goal=   None    Shift=    0.000
 RMSDP=5.97D-04 MaxDP=3.40D-02 DE=-1.96D-01 OVMax= 1.58D-01

 Cycle   3  Pass 0  IDiag  1:
 RMSU=  5.87D-04    CP:  9.94D-01  1.12D+00
 E= -2048.68078981800     Delta-E=       -0.178039718067 Rises=F Damp=F
 DIIS: error= 5.69D-03 at cycle   3 NSaved=   3.
 NSaved= 3 IEnMin= 3 EnMin= -2048.68078981800     IErMin= 3 ErrMin= 5.69D-03
 ErrMax= 5.69D-03  0.00D+00 EMaxC= 1.00D-01 BMatC= 6.47D-02 BMatP= 1.45D-01
 IDIUse=3 WtCom= 9.43D-01 WtEn= 5.69D-02
 Coeff-Com: -0.233D+00 0.552D+00 0.680D+00
 Coeff-En:   0.000D+00 0.000D+00 0.100D+01
 Coeff:     -0.219D+00 0.521D+00 0.699D+00
 Gap=     0.277 Goal=   None    Shift=    0.000
 RMSDP=3.63D-04 MaxDP=3.25D-02 DE=-1.78D-01 OVMax= 6.82D-02

 Cycle   4  Pass 0  IDiag  1:
 RMSU=  2.05D-04    CP:  9.94D-01  1.41D+00  6.69D-01
 E= -2048.73060918005     Delta-E=       -0.049819362047 Rises=F Damp=F
 DIIS: error= 2.39D-03 at cycle   4 NSaved=   4.
 NSaved= 4 IEnMin= 4 EnMin= -2048.73060918005     IErMin= 4 ErrMin= 2.39D-03
 ErrMax= 2.39D-03  0.00D+00 EMaxC= 1.00D-01 BMatC= 8.61D-03 BMatP= 6.47D-02
 IDIUse=3 WtCom= 9.76D-01 WtEn= 2.39D-02
 Coeff-Com: -0.981D-01 0.190D+00 0.371D+00 0.537D+00
 Coeff-En:   0.000D+00 0.000D+00 0.480D-01 0.952D+00
 Coeff:     -0.958D-01 0.186D+00 0.364D+00 0.547D+00
 Gap=     0.282 Goal=   None    Shift=    0.000
 RMSDP=1.26D-04 MaxDP=1.15D-02 DE=-4.98D-02 OVMax= 1.39D-02

 Cycle   5  Pass 0  IDiag  1:
 RMSU=  6.16D-05    CP:  9.93D-01  1.39D+00  7.98D-01  6.23D-01
 E= -2048.73782305061     Delta-E=       -0.007213870566 Rises=F Damp=F
 DIIS: error= 5.60D-04 at cycle   5 NSaved=   5.
 NSaved= 5 IEnMin= 5 EnMin= -2048.73782305061     IErMin= 5 ErrMin= 5.60D-04
 ErrMax= 5.60D-04  0.00D+00 EMaxC= 1.00D-01 BMatC= 2.77D-04 BMatP= 8.61D-03
 IDIUse=3 WtCom= 9.94D-01 WtEn= 5.60D-03
 Coeff-Com: -0.251D-01 0.431D-01 0.116D+00 0.236D+00 0.630D+00
 Coeff-En:   0.000D+00 0.000D+00 0.000D+00 0.000D+00 0.100D+01
 Coeff:     -0.249D-01 0.429D-01 0.115D+00 0.234D+00 0.632D+00
 Gap=     0.282 Goal=   None    Shift=    0.000
 RMSDP=2.61D-05 MaxDP=1.86D-03 DE=-7.21D-03 OVMax= 3.18D-03

 Failed to achieve initial convergence to 1.0D-08 in  6 cycles.
 Switch to full accuracy anyway.
 Cycle   6  Pass 1  IDiag  1:
 E= -2048.73791751088     Delta-E=       -0.000094460269 Rises=F Damp=F
 DIIS: error= 2.04D-04 at cycle   1 NSaved=   1.
 NSaved= 1 IEnMin= 1 EnMin= -2048.73791751088     IErMin= 1 ErrMin= 2.04D-04
 ErrMax= 2.04D-04  0.00D+00 EMaxC= 1.00D-01 BMatC= 7.63D-05 BMatP= 7.63D-05
 IDIUse=3 WtCom= 9.98D-01 WtEn= 2.04D-03
 Coeff-Com:  0.100D+01
 Coeff-En:   0.100D+01
 Coeff:      0.100D+01
 Gap=     0.282 Goal=   None    Shift=    0.000
 RMSDP=2.61D-05 MaxDP=1.86D-03 DE=-9.45D-05 OVMax= 2.73D-03

 Cycle   7  Pass 1  IDiag  1:
 RMSU=  1.12D-04    CP:  1.00D+00
 E= -2048.73797321993     Delta-E=       -0.000055709047 Rises=F Damp=F
 DIIS: error= 2.46D-04 at cycle   2 NSaved=   2.
 NSaved= 2 IEnMin= 2 EnMin= -2048.73797321993     IErMin= 1 ErrMin= 2.04D-04
 ErrMax= 2.46D-04  0.00D+00 EMaxC= 1.00D-01 BMatC= 4.25D-05 BMatP= 7.63D-05
 IDIUse=3 WtCom= 9.98D-01 WtEn= 2.46D-03
 Coeff-Com:  0.401D+00 0.599D+00
 Coeff-En:   0.000D+00 0.100D+01
 Coeff:      0.400D+00 0.600D+00
 Gap=     0.282 Goal=   None    Shift=    0.000
 RMSDP=1.15D-05 MaxDP=1.09D-03 DE=-5.57D-05 OVMax= 1.56D-03

 Cycle   8  Pass 1  IDiag  1:
 RMSU=  1.12D-05    CP:  1.00D+00  1.02D+00
 E= -2048.73800391824     Delta-E=       -0.000030698312 Rises=F Damp=F
 DIIS: error= 1.04D-04 at cycle   3 NSaved=   3.
 NSaved= 3 IEnMin= 3 EnMin= -2048.73800391824     IErMin= 3 ErrMin= 1.04D-04
 ErrMax= 1.04D-04  0.00D+00 EMaxC= 1.00D-01 BMatC= 1.04D-05 BMatP= 4.25D-05
 IDIUse=3 WtCom= 9.99D-01 WtEn= 1.04D-03
 Coeff-Com: -0.193D-01 0.318D+00 0.701D+00
 Coeff-En:   0.000D+00 0.143D+00 0.857D+00
 Coeff:     -0.193D-01 0.318D+00 0.701D+00
 Gap=     0.282 Goal=   None    Shift=    0.000
 RMSDP=5.66D-06 MaxDP=4.65D-04 DE=-3.07D-05 OVMax= 5.56D-04

 Cycle   9  Pass 1  IDiag  1:
 RMSU=  3.83D-06    CP:  1.00D+00  1.05D+00  7.55D-01
 E= -2048.73801366394     Delta-E=       -0.000009745698 Rises=F Damp=F
 DIIS: error= 2.14D-05 at cycle   4 NSaved=   4.
 NSaved= 4 IEnMin= 4 EnMin= -2048.73801366394     IErMin= 4 ErrMin= 2.14D-05
 ErrMax= 2.14D-05  0.00D+00 EMaxC= 1.00D-01 BMatC= 4.92D-07 BMatP= 1.04D-05
 IDIUse=1 WtCom= 1.00D+00 WtEn= 0.00D+00
 Coeff-Com: -0.294D-01 0.873D-01 0.258D+00 0.684D+00
 Coeff:     -0.294D-01 0.873D-01 0.258D+00 0.684D+00
 Gap=     0.282 Goal=   None    Shift=    0.000
 RMSDP=1.43D-06 MaxDP=1.34D-04 DE=-9.75D-06 OVMax= 5.12D-04

 Cycle  10  Pass 1  IDiag  1:
 RMSU=  1.28D-06    CP:  1.00D+00  1.05D+00  7.89D-01  1.10D+00
 E= -2048.73801448492     Delta-E=       -0.000000820976 Rises=F Damp=F
 DIIS: error= 1.40D-05 at cycle   5 NSaved=   5.
 NSaved= 5 IEnMin= 5 EnMin= -2048.73801448492     IErMin= 5 ErrMin= 1.40D-05
 ErrMax= 1.40D-05  0.00D+00 EMaxC= 1.00D-01 BMatC= 1.21D-07 BMatP= 4.92D-07
 IDIUse=1 WtCom= 1.00D+00 WtEn= 0.00D+00
 Coeff-Com: -0.295D-02-0.571D-01-0.119D+00 0.211D+00 0.968D+00
 Coeff:     -0.295D-02-0.571D-01-0.119D+00 0.211D+00 0.968D+00
 Gap=     0.282 Goal=   None    Shift=    0.000
 RMSDP=1.21D-06 MaxDP=7.38D-05 DE=-8.21D-07 OVMax= 2.48D-04

 Cycle  11  Pass 1  IDiag  1:
 RMSU=  5.00D-07    CP:  1.00D+00  1.06D+00  7.99D-01  1.37D+00  1.17D+00
 E= -2048.73801474081     Delta-E=       -0.000000255891 Rises=F Damp=F
 DIIS: error= 6.20D-06 at cycle   6 NSaved=   6.
 NSaved= 6 IEnMin= 6 EnMin= -2048.73801474081     IErMin= 6 ErrMin= 6.20D-06
 ErrMax= 6.20D-06  0.00D+00 EMaxC= 1.00D-01 BMatC= 2.86D-08 BMatP= 1.21D-07
 IDIUse=1 WtCom= 1.00D+00 WtEn= 0.00D+00
 Coeff-Com:  0.455D-02-0.467D-01-0.114D+00-0.311D-04 0.520D+00 0.637D+00
 Coeff:      0.455D-02-0.467D-01-0.114D+00-0.311D-04 0.520D+00 0.637D+00
 Gap=     0.282 Goal=   None    Shift=    0.000
 RMSDP=3.69D-07 MaxDP=3.58D-05 DE=-2.56D-07 OVMax= 1.34D-04

 Cycle  12  Pass 1  IDiag  1:
 RMSU=  1.83D-07    CP:  1.00D+00  1.05D+00  8.01D-01  1.44D+00  1.30D+00
                    CP:  9.37D-01
 E= -2048.73801478281     Delta-E=       -0.000000042003 Rises=F Damp=F
 DIIS: error= 1.16D-06 at cycle   7 NSaved=   7.
 NSaved= 7 IEnMin= 7 EnMin= -2048.73801478281     IErMin= 7 ErrMin= 1.16D-06
 ErrMax= 1.16D-06  0.00D+00 EMaxC= 1.00D-01 BMatC= 7.77D-10 BMatP= 2.86D-08
 IDIUse=1 WtCom= 1.00D+00 WtEn= 0.00D+00
 Coeff-Com:  0.109D-02-0.785D-02-0.205D-01-0.820D-02 0.596D-01 0.140D+00
 Coeff-Com:  0.836D+00
 Coeff:      0.109D-02-0.785D-02-0.205D-01-0.820D-02 0.596D-01 0.140D+00
 Coeff:      0.836D+00
 Gap=     0.282 Goal=   None    Shift=    0.000
 RMSDP=8.44D-08 MaxDP=4.94D-06 DE=-4.20D-08 OVMax= 2.30D-05

 Cycle  13  Pass 1  IDiag  1:
 RMSU=  4.94D-08    CP:  1.00D+00  1.05D+00  8.00D-01  1.45D+00  1.32D+00
                    CP:  1.02D+00  1.14D+00
 E= -2048.73801478427     Delta-E=       -0.000000001457 Rises=F Damp=F
 DIIS: error= 8.13D-07 at cycle   8 NSaved=   8.
 NSaved= 8 IEnMin= 8 EnMin= -2048.73801478427     IErMin= 8 ErrMin= 8.13D-07
 ErrMax= 8.13D-07  0.00D+00 EMaxC= 1.00D-01 BMatC= 3.15D-10 BMatP= 7.77D-10
 IDIUse=1 WtCom= 1.00D+00 WtEn= 0.00D+00
 Coeff-Com: -0.689D-03 0.882D-02 0.207D-01-0.231D-02-0.110D+00-0.979D-01
 Coeff-Com:  0.422D+00 0.759D+00
 Coeff:     -0.689D-03 0.882D-02 0.207D-01-0.231D-02-0.110D+00-0.979D-01
 Coeff:      0.422D+00 0.759D+00
 Gap=     0.282 Goal=   None    Shift=    0.000
 RMSDP=4.49D-08 MaxDP=2.94D-06 DE=-1.46D-09 OVMax= 1.10D-05

 Cycle  14  Pass 1  IDiag  1:
 RMSU=  2.68D-08    CP:  1.00D+00  1.05D+00  8.00D-01  1.46D+00  1.32D+00
                    CP:  1.07D+00  1.28D+00  1.09D+00
 E= -2048.73801478446     Delta-E=       -0.000000000189 Rises=F Damp=F
 DIIS: error= 1.83D-07 at cycle   9 NSaved=   9.
 NSaved= 9 IEnMin= 9 EnMin= -2048.73801478446     IErMin= 9 ErrMin= 1.83D-07
 ErrMax= 1.83D-07  0.00D+00 EMaxC= 1.00D-01 BMatC= 2.80D-11 BMatP= 3.15D-10
 IDIUse=1 WtCom= 1.00D+00 WtEn= 0.00D+00
 Coeff-Com: -0.401D-03 0.449D-02 0.108D-01 0.953D-04-0.511D-01-0.558D-01
 Coeff-Com:  0.776D-01 0.291D+00 0.723D+00
 Coeff:     -0.401D-03 0.449D-02 0.108D-01 0.953D-04-0.511D-01-0.558D-01
 Coeff:      0.776D-01 0.291D+00 0.723D+00
 Gap=     0.282 Goal=   None    Shift=    0.000
 RMSDP=1.33D-08 MaxDP=8.95D-07 DE=-1.89D-10 OVMax= 3.51D-06

 Cycle  15  Pass 1  IDiag  1:
 RMSU=  8.90D-09    CP:  1.00D+00  1.05D+00  8.00D-01  1.46D+00  1.32D+00
                    CP:  1.07D+00  1.31D+00  1.22D+00  1.13D+00
 E= -2048.73801478490     Delta-E=       -0.000000000446 Rises=F Damp=F
 DIIS: error= 1.11D-07 at cycle  10 NSaved=  10.
 NSaved=10 IEnMin=10 EnMin= -2048.73801478490     IErMin=10 ErrMin= 1.11D-07
 ErrMax= 1.11D-07  0.00D+00 EMaxC= 1.00D-01 BMatC= 5.00D-12 BMatP= 2.80D-11
 IDIUse=1 WtCom= 1.00D+00 WtEn= 0.00D+00
 Coeff-Com:  0.631D-05-0.315D-03-0.656D-03 0.208D-03 0.541D-02 0.122D-02
 Coeff-Com: -0.547D-01-0.587D-01 0.274D+00 0.834D+00
 Coeff:      0.631D-05-0.315D-03-0.656D-03 0.208D-03 0.541D-02 0.122D-02
 Coeff:     -0.547D-01-0.587D-01 0.274D+00 0.834D+00
 Gap=     0.282 Goal=   None    Shift=    0.000
 RMSDP=6.54D-09 MaxDP=3.84D-07 DE=-4.46D-10 OVMax= 1.37D-06

 SCF Done:  E(RwB97XD) =  -2048.73801478     A.U. after   15 cycles
            NFock= 15  Conv=0.65D-08     -V/T= 2.0053
 KE= 2.037841141513D+03 PE=-1.592645764592D+04 EE= 6.267002734720D+03
 Leave Link  502 at Sat Jan 20 11:30:58 2018, MaxMem=  4294967296 cpu:           22433.2 elap:             725.0
 (Enter /share/apps/g16/l601.exe)
 Copying SCF densities to generalized density rwf, IOpCl= 0 IROHF=0.

 **********************************************************************

            Population analysis using the SCF density.

 **********************************************************************

 Orbital symmetries:
       Occupied  (A) (A) (A) (A) (A) (A) (A) (A) (A) (A) (A) (A)
                 (A) (A) (A) (A) (A) (A) (A) (A) (A) (A) (A) (A)
                 (A) (A) (A) (A) (A) (A) (A) (A) (A) (A) (A) (A)
                 (A) (A) (A) (A) (A) (A) (A) (A) (A) (A) (A) (A)
                 (A) (A) (A) (A) (A) (A) (A) (A) (A) (A) (A) (A)
                 (A) (A) (A) (A) (A) (A) (A) (A) (A) (A) (A) (A)
                 (A) (A) (A) (A) (A) (A) (A) (A) (A) (A) (A) (A)
                 (A) (A) (A) (A) (A) (A) (A) (A) (A) (A) (A) (A)
                 (A) (A) (A) (A) (A) (A) (A) (A) (A) (A) (A) (A)
                 (A) (A) (A) (A) (A) (A) (A) (A) (A) (A) (A) (A)
                 (A) (A) (A) (A) (A) (A) (A) (A) (A) (A) (A) (A)
                 (A) (A) (A) (A) (A) (A) (A) (A) (A) (A) (A) (A)
                 (A) (A) (A) (A) (A) (A) (A) (A) (A) (A)
       Virtual   (A) (A) (A) (A) (A) (A) (A) (A) (A) (A) (A) (A)
                 (A) (A) (A) (A) (A) (A) (A) (A) (A) (A) (A) (A)
                 (A) (A) (A) (A) (A) (A) (A) (A) (A) (A) (A) (A)
                 (A) (A) (A) (A) (A) (A) (A) (A) (A) (A) (A) (A)
                 (A) (A) (A) (A) (A) (A) (A) (A) (A) (A) (A) (A)
                 (A) (A) (A) (A) (A) (A) (A) (A) (A) (A) (A) (A)
                 (A) (A) (A) (A) (A) (A) (A) (A) (A) (A) (A) (A)
                 (A) (A) (A) (A) (A) (A) (A) (A) (A) (A) (A) (A)
                 (A) (A) (A) (A) (A) (A) (A) (A) (A) (A) (A) (A)
                 (A) (A) (A) (A) (A) (A) (A) (A) (A) (A) (A) (A)
                 (A) (A) (A) (A) (A) (A) (A) (A) (A) (A) (A) (A)
                 (A) (A) (A) (A) (A) (A) (A) (A) (A) (A) (A) (A)
                 (A) (A) (A) (A) (A) (A) (A) (A) (A) (A) (A) (A)
                 (A) (A) (A) (A) (A) (A) (A) (A) (A) (A) (A) (A)
                 (A) (A) (A) (A) (A) (A) (A) (A) (A) (A) (A) (A)
                 (A) (A) (A) (A) (A) (A) (A) (A) (A) (A) (A) (A)
                 (A) (A) (A) (A) (A) (A) (A) (A) (A) (A) (A) (A)
                 (A) (A) (A) (A) (A) (A) (A) (A) (A) (A) (A) (A)
                 (A) (A) (A) (A) (A) (A) (A) (A) (A) (A) (A) (A)
                 (A) (A) (A) (A) (A) (A) (A) (A) (A) (A) (A) (A)
                 (A) (A) (A) (A) (A) (A) (A) (A) (A) (A) (A) (A)
                 (A) (A) (A) (A) (A) (A) (A) (A) (A) (A) (A) (A)
                 (A) (A) (A) (A) (A) (A) (A) (A) (A) (A) (A) (A)
                 (A) (A) (A) (A) (A) (A) (A) (A) (A) (A) (A) (A)
                 (A) (A) (A) (A) (A) (A) (A) (A) (A) (A) (A) (A)
                 (A) (A) (A) (A) (A) (A) (A) (A) (A) (A) (A) (A)
                 (A) (A) (A) (A) (A) (A) (A) (A) (A) (A) (A) (A)
                 (A) (A) (A) (A) (A) (A) (A) (A) (A) (A) (A) (A)
                 (A) (A) (A) (A) (A) (A) (A) (A) (A) (A) (A) (A)
                 (A) (A) (A) (A) (A) (A) (A) (A) (A) (A) (A) (A)
                 (A) (A) (A) (A) (A) (A) (A) (A) (A) (A) (A) (A)
                 (A) (A) (A) (A) (A) (A) (A) (A) (A) (A) (A) (A)
                 (A) (A) (A) (A) (A) (A) (A) (A) (A) (A) (A) (A)
                 (A) (A) (A) (A) (A) (A) (A) (A) (A) (A) (A) (A)
                 (A) (A) (A) (A) (A) (A) (A) (A) (A) (A) (A) (A)
                 (A) (A) (A) (A) (A) (A) (A) (A) (A) (A) (A) (A)
                 (A) (A) (A) (A) (A) (A) (A) (A) (A) (A) (A) (A)
                 (A) (A) (A) (A) (A) (A) (A) (A) (A) (A) (A) (A)
                 (A) (A) (A) (A) (A) (A) (A) (A) (A) (A) (A) (A)
                 (A) (A) (A) (A) (A) (A) (A) (A) (A) (A) (A) (A)
                 (A) (A) (A) (A) (A) (A) (A) (A) (A) (A) (A) (A)
                 (A) (A) (A) (A) (A) (A) (A) (A) (A) (A) (A) (A)
                 (A) (A) (A) (A) (A) (A) (A) (A) (A) (A) (A) (A)
                 (A) (A) (A) (A) (A) (A) (A) (A) (A) (A) (A) (A)
                 (A) (A) (A) (A) (A) (A) (A) (A) (A) (A) (A) (A)
                 (A) (A) (A) (A) (A) (A) (A) (A) (A) (A) (A) (A)
                 (A) (A) (A) (A) (A) (A) (A) (A) (A) (A) (A) (A)
                 (A) (A) (A) (A) (A) (A) (A) (A) (A) (A) (A) (A)
                 (A) (A) (A) (A) (A) (A) (A)
 The electronic state is 1-A.
 Alpha  occ. eigenvalues --  -19.25926 -19.21911 -19.20499 -14.52483 -14.51775
 Alpha  occ. eigenvalues --  -14.49650 -14.48327 -14.47853 -14.47176 -14.46447
 Alpha  occ. eigenvalues --  -14.46121 -14.44754 -14.43399 -14.43083 -14.42984
 Alpha  occ. eigenvalues --  -14.42237 -14.41955 -14.41846 -14.40977 -14.40583
 Alpha  occ. eigenvalues --  -10.45531 -10.40795 -10.40029 -10.39049 -10.37981
 Alpha  occ. eigenvalues --  -10.37655 -10.37355 -10.36402 -10.36267 -10.35781
 Alpha  occ. eigenvalues --  -10.35118 -10.34880 -10.34264 -10.34038 -10.33984
 Alpha  occ. eigenvalues --  -10.33948 -10.33053 -10.31770 -10.31694 -10.30946
 Alpha  occ. eigenvalues --  -10.29791 -10.29390 -10.27836  -1.19549  -1.14486
 Alpha  occ. eigenvalues --   -1.13052  -1.12950  -1.12227  -1.10311  -1.09354
 Alpha  occ. eigenvalues --   -1.08449  -1.08229  -1.05870  -1.03926  -1.02497
 Alpha  occ. eigenvalues --   -1.01328  -1.00317  -0.99377  -0.98325  -0.97794
 Alpha  occ. eigenvalues --   -0.96204  -0.95943  -0.93533  -0.90986  -0.87036
 Alpha  occ. eigenvalues --   -0.85525  -0.84816  -0.83970  -0.83693  -0.83146
 Alpha  occ. eigenvalues --   -0.81874  -0.78838  -0.76343  -0.74346  -0.74119
 Alpha  occ. eigenvalues --   -0.73727  -0.73427  -0.73302  -0.71958  -0.69749
 Alpha  occ. eigenvalues --   -0.67163  -0.67087  -0.66524  -0.66083  -0.64423
 Alpha  occ. eigenvalues --   -0.63743  -0.63500  -0.63416  -0.62574  -0.61411
 Alpha  occ. eigenvalues --   -0.61016  -0.60869  -0.59980  -0.59484  -0.59001
 Alpha  occ. eigenvalues --   -0.58484  -0.58020  -0.57461  -0.57298  -0.56498
 Alpha  occ. eigenvalues --   -0.56094  -0.55930  -0.54963  -0.54842  -0.54337
 Alpha  occ. eigenvalues --   -0.54062  -0.53335  -0.53024  -0.52751  -0.52533
 Alpha  occ. eigenvalues --   -0.52524  -0.52345  -0.52011  -0.51470  -0.50966
 Alpha  occ. eigenvalues --   -0.49895  -0.49850  -0.49396  -0.49027  -0.48703
 Alpha  occ. eigenvalues --   -0.48516  -0.48139  -0.47935  -0.47759  -0.47439
 Alpha  occ. eigenvalues --   -0.47227  -0.45570  -0.45458  -0.44060  -0.43517
 Alpha  occ. eigenvalues --   -0.42010  -0.40291  -0.39514  -0.38138  -0.37328
 Alpha  occ. eigenvalues --   -0.37158  -0.37053  -0.36575  -0.35555  -0.34506
 Alpha  occ. eigenvalues --   -0.34342  -0.34038  -0.33733  -0.33125  -0.33089
 Alpha  occ. eigenvalues --   -0.32524  -0.32037  -0.31871  -0.31739  -0.31637
 Alpha  occ. eigenvalues --   -0.31254  -0.28747  -0.26659  -0.25078
 Alpha virt. eigenvalues --    0.03162   0.04699   0.07093   0.07890   0.08486
 Alpha virt. eigenvalues --    0.09238   0.09942   0.10022   0.10982   0.11550
 Alpha virt. eigenvalues --    0.13096   0.13322   0.14414   0.14707   0.14871
 Alpha virt. eigenvalues --    0.15372   0.15913   0.17363   0.17994   0.18257
 Alpha virt. eigenvalues --    0.18930   0.18992   0.19390   0.19910   0.20288
 Alpha virt. eigenvalues --    0.20818   0.21061   0.21468   0.21705   0.22120
 Alpha virt. eigenvalues --    0.22921   0.23051   0.23359   0.23771   0.24203
 Alpha virt. eigenvalues --    0.24305   0.24825   0.25330   0.25756   0.25949
 Alpha virt. eigenvalues --    0.25959   0.27010   0.27724   0.28018   0.28124
 Alpha virt. eigenvalues --    0.28747   0.29081   0.29668   0.30444   0.30564
 Alpha virt. eigenvalues --    0.31270   0.32257   0.32722   0.33362   0.33468
 Alpha virt. eigenvalues --    0.33807   0.34657   0.35326   0.36089   0.36996
 Alpha virt. eigenvalues --    0.37077   0.37828   0.37994   0.39105   0.39788
 Alpha virt. eigenvalues --    0.40064   0.40625   0.40978   0.41450   0.41700
 Alpha virt. eigenvalues --    0.41997   0.42648   0.42901   0.43957   0.44663
 Alpha virt. eigenvalues --    0.45074   0.45316   0.45880   0.46236   0.47203
 Alpha virt. eigenvalues --    0.47912   0.48257   0.49212   0.49272   0.49578
 Alpha virt. eigenvalues --    0.49906   0.50469   0.50846   0.51020   0.51404
 Alpha virt. eigenvalues --    0.51913   0.52043   0.52642   0.53441   0.53800
 Alpha virt. eigenvalues --    0.54318   0.54448   0.54799   0.55044   0.55884
 Alpha virt. eigenvalues --    0.56135   0.56772   0.56875   0.57161   0.57393
 Alpha virt. eigenvalues --    0.57782   0.58429   0.59060   0.59343   0.59894
 Alpha virt. eigenvalues --    0.60148   0.60865   0.61259   0.61429   0.61698
 Alpha virt. eigenvalues --    0.62251   0.62482   0.63227   0.63784   0.63991
 Alpha virt. eigenvalues --    0.64179   0.64521   0.64985   0.65240   0.65756
 Alpha virt. eigenvalues --    0.65937   0.66073   0.66644   0.66722   0.67745
 Alpha virt. eigenvalues --    0.68432   0.68803   0.69252   0.69602   0.69746
 Alpha virt. eigenvalues --    0.70421   0.71136   0.72012   0.72305   0.72814
 Alpha virt. eigenvalues --    0.72874   0.73224   0.73686   0.73743   0.74103
 Alpha virt. eigenvalues --    0.74431   0.75031   0.75060   0.75487   0.75710
 Alpha virt. eigenvalues --    0.75997   0.76515   0.76582   0.77295   0.77491
 Alpha virt. eigenvalues --    0.77504   0.78758   0.78869   0.79089   0.79301
 Alpha virt. eigenvalues --    0.79848   0.80018   0.80615   0.80810   0.81264
 Alpha virt. eigenvalues --    0.81702   0.82215   0.82625   0.82768   0.83439
 Alpha virt. eigenvalues --    0.83713   0.84020   0.84507   0.84992   0.85391
 Alpha virt. eigenvalues --    0.85716   0.86357   0.86864   0.87204   0.87488
 Alpha virt. eigenvalues --    0.88346   0.88684   0.89143   0.89792   0.90202
 Alpha virt. eigenvalues --    0.90584   0.91164   0.91458   0.92064   0.92567
 Alpha virt. eigenvalues --    0.92911   0.93533   0.93976   0.94324   0.94677
 Alpha virt. eigenvalues --    0.94818   0.95458   0.96007   0.96484   0.96892
 Alpha virt. eigenvalues --    0.97878   0.98321   0.98503   0.99128   0.99680
 Alpha virt. eigenvalues --    0.99924   1.00416   1.00806   1.00979   1.01713
 Alpha virt. eigenvalues --    1.02326   1.02928   1.03099   1.03863   1.04421
 Alpha virt. eigenvalues --    1.04626   1.05009   1.05548   1.06134   1.06624
 Alpha virt. eigenvalues --    1.06836   1.07680   1.08303   1.08479   1.09168
 Alpha virt. eigenvalues --    1.09630   1.10062   1.10536   1.11047   1.12217
 Alpha virt. eigenvalues --    1.12359   1.13209   1.13742   1.13824   1.14193
 Alpha virt. eigenvalues --    1.14539   1.14666   1.14735   1.15598   1.15917
 Alpha virt. eigenvalues --    1.16518   1.16997   1.17679   1.18148   1.18771
 Alpha virt. eigenvalues --    1.19092   1.19456   1.19854   1.20092   1.20549
 Alpha virt. eigenvalues --    1.20841   1.21002   1.21374   1.21798   1.22436
 Alpha virt. eigenvalues --    1.22825   1.23161   1.23313   1.23997   1.24326
 Alpha virt. eigenvalues --    1.24485   1.24976   1.25214   1.26165   1.26751
 Alpha virt. eigenvalues --    1.27447   1.28004   1.28349   1.28746   1.29592
 Alpha virt. eigenvalues --    1.29930   1.30758   1.31068   1.31456   1.32316
 Alpha virt. eigenvalues --    1.32883   1.33457   1.34076   1.34418   1.35163
 Alpha virt. eigenvalues --    1.35493   1.36260   1.37779   1.38065   1.38566
 Alpha virt. eigenvalues --    1.39355   1.40148   1.40356   1.40989   1.41524
 Alpha virt. eigenvalues --    1.41865   1.42554   1.44568   1.44686   1.45266
 Alpha virt. eigenvalues --    1.45855   1.46391   1.47900   1.48473   1.48698
 Alpha virt. eigenvalues --    1.49410   1.50270   1.50863   1.51196   1.51924
 Alpha virt. eigenvalues --    1.53229   1.53720   1.54303   1.54687   1.55293
 Alpha virt. eigenvalues --    1.55662   1.56580   1.57034   1.57481   1.58130
 Alpha virt. eigenvalues --    1.58877   1.59416   1.60388   1.60878   1.62075
 Alpha virt. eigenvalues --    1.62992   1.63392   1.63884   1.64446   1.65022
 Alpha virt. eigenvalues --    1.65406   1.66049   1.66714   1.67151   1.67608
 Alpha virt. eigenvalues --    1.67822   1.68594   1.68690   1.69137   1.69386
 Alpha virt. eigenvalues --    1.70232   1.70677   1.70981   1.71359   1.72331
 Alpha virt. eigenvalues --    1.72531   1.72877   1.73494   1.73785   1.74091
 Alpha virt. eigenvalues --    1.74634   1.74926   1.75338   1.75611   1.75736
 Alpha virt. eigenvalues --    1.76199   1.76472   1.76587   1.77885   1.78020
 Alpha virt. eigenvalues --    1.78209   1.78534   1.79143   1.79332   1.79475
 Alpha virt. eigenvalues --    1.79741   1.79982   1.80604   1.80642   1.80721
 Alpha virt. eigenvalues --    1.81286   1.81601   1.82439   1.83103   1.83697
 Alpha virt. eigenvalues --    1.84200   1.84594   1.84724   1.85239   1.85892
 Alpha virt. eigenvalues --    1.86052   1.86123   1.87499   1.87962   1.88239
 Alpha virt. eigenvalues --    1.88492   1.88938   1.89037   1.90086   1.90646
 Alpha virt. eigenvalues --    1.90946   1.91176   1.91703   1.92058   1.92476
 Alpha virt. eigenvalues --    1.93087   1.93419   1.93702   1.94256   1.94885
 Alpha virt. eigenvalues --    1.95403   1.96007   1.96935   1.97331   1.98408
 Alpha virt. eigenvalues --    1.99450   1.99830   2.01178   2.01606   2.02050
 Alpha virt. eigenvalues --    2.02600   2.02803   2.03557   2.04231   2.04580
 Alpha virt. eigenvalues --    2.05123   2.06094   2.07174   2.07281   2.08526
 Alpha virt. eigenvalues --    2.08613   2.09156   2.09513   2.10238   2.10892
 Alpha virt. eigenvalues --    2.11552   2.11971   2.13038   2.13166   2.13917
 Alpha virt. eigenvalues --    2.14171   2.14856   2.15625   2.18302   2.18471
 Alpha virt. eigenvalues --    2.19712   2.20015   2.20433   2.21000   2.21671
 Alpha virt. eigenvalues --    2.22170   2.22895   2.23147   2.23764   2.23957
 Alpha virt. eigenvalues --    2.24737   2.25394   2.26620   2.26982   2.27507
 Alpha virt. eigenvalues --    2.28454   2.28725   2.29012   2.29310   2.29883
 Alpha virt. eigenvalues --    2.30649   2.31193   2.31980   2.32674   2.32967
 Alpha virt. eigenvalues --    2.33631   2.33964   2.34543   2.35175   2.35661
 Alpha virt. eigenvalues --    2.35956   2.36248   2.36353   2.37423   2.38057
 Alpha virt. eigenvalues --    2.38612   2.39482   2.40081   2.41046   2.41113
 Alpha virt. eigenvalues --    2.41631   2.42161   2.43196   2.43304   2.43778
 Alpha virt. eigenvalues --    2.45545   2.45851   2.46247   2.46790   2.47285
 Alpha virt. eigenvalues --    2.48018   2.48252   2.49724   2.50000   2.52385
 Alpha virt. eigenvalues --    2.52516   2.54718   2.55465   2.55960   2.56609
 Alpha virt. eigenvalues --    2.57071   2.57849   2.58319   2.59748   2.60969
 Alpha virt. eigenvalues --    2.61318   2.62543   2.62731   2.62886   2.64232
 Alpha virt. eigenvalues --    2.64871   2.65206   2.66089   2.66638   2.66752
 Alpha virt. eigenvalues --    2.67633   2.68096   2.68963   2.69308   2.69857
 Alpha virt. eigenvalues --    2.70442   2.71782   2.71966   2.72492   2.73634
 Alpha virt. eigenvalues --    2.74142   2.74488   2.74928   2.75544   2.76844
 Alpha virt. eigenvalues --    2.78211   2.78762   2.79258   2.79549   2.80138
 Alpha virt. eigenvalues --    2.80677   2.81035   2.81408   2.81672   2.81965
 Alpha virt. eigenvalues --    2.82817   2.82978   2.83602   2.84157   2.84950
 Alpha virt. eigenvalues --    2.85271   2.86259   2.86904   2.87491   2.87558
 Alpha virt. eigenvalues --    2.88870   2.89318   2.89967   2.93082   2.94509
 Alpha virt. eigenvalues --    2.95510   2.95700   2.97745   2.98922   2.99066
 Alpha virt. eigenvalues --    3.00620   3.02025   3.02914   3.05235   3.06867
 Alpha virt. eigenvalues --    3.07390   3.09771   3.10958   3.13866   3.14661
 Alpha virt. eigenvalues --    3.15304   3.16332   3.17119   3.18378   3.20827
 Alpha virt. eigenvalues --    3.22648   3.23329   3.23764   3.24241   3.27413
 Alpha virt. eigenvalues --    3.45535   3.47315   3.48357   3.49503   3.50455
 Alpha virt. eigenvalues --    3.52973   3.54420   3.56654   3.58439   3.60313
 Alpha virt. eigenvalues --    3.63623   3.70843   3.75112
          Condensed to atoms (all electrons):
 Mulliken charges:
               1
     1  N   -0.311705
     2  C    0.179722
     3  C    0.057353
     4  N   -0.256108
     5  C    0.132145
     6  H    0.028995
     7  N   -0.273673
     8  C    0.131435
     9  H    0.018665
    10  N   -0.290873
    11  C    0.229076
    12  C    0.101535
    13  N   -0.046058
    14  H    0.108615
    15  H    0.088667
    16  H    0.028302
    17  H    0.034129
    18  H    0.026123
    19  N   -0.292157
    20  C    0.245221
    21  C    0.176014
    22  N   -0.089523
    23  H    0.110324
    24  H    0.111936
    25  N   -0.295145
    26  C    0.208433
    27  N   -0.129139
    28  H    0.123300
    29  C    0.143523
    30  O   -0.322467
    31  C    0.014594
    32  N   -0.222052
    33  C    0.116590
    34  H    0.022419
    35  H    0.021486
    36  H    0.024697
    37  H    0.019536
    38  H    0.043974
    39  H    0.064895
    40  H    0.074795
    41  H    0.029917
    42  C   -0.106651
    43  O   -0.267862
    44  C    0.177116
    45  H    0.134028
    46  N   -0.129312
    47  O   -0.343286
    48  C    0.346081
    49  H    0.045863
    50  C    0.179680
    51  C    0.036624
    52  N   -0.281864
    53  H    0.034424
    54  H    0.031682
    55  H    0.014483
    56  H    0.121692
    57  H    0.119431
    58  N   -0.061258
    59  C    0.120543
    60  C    0.236379
    61  N   -0.286462
    62  H    0.034377
    63  C    0.176727
    64  N   -0.304627
    65  H    0.036187
    66  C    0.106139
    67  N   -0.247248
    68  C    0.004448
    69  C    0.181911
    70  N   -0.296762
 Sum of Mulliken charges =  -0.00000
 Mulliken charges with hydrogens summed into heavy atoms:
               1
     1  N   -0.311705
     2  C    0.268276
     3  C    0.057353
     4  N   -0.256108
     5  C    0.161140
     7  N   -0.273673
     8  C    0.150100
    10  N   -0.290873
    11  C    0.229076
    12  C    0.101535
    13  N    0.151224
    19  N   -0.292157
    20  C    0.245221
    21  C    0.241733
    22  N    0.132737
    25  N   -0.295145
    26  C    0.208433
    27  N   -0.005839
    29  C    0.143523
    30  O   -0.322467
    31  C    0.014594
    32  N   -0.222052
    33  C    0.139009
    42  C   -0.076733
    43  O   -0.267862
    44  C    0.177116
    46  N    0.004716
    47  O   -0.343286
    48  C    0.346081
    50  C    0.225543
    51  C    0.220288
    52  N   -0.281864
    58  N    0.179865
    59  C    0.120543
    60  C    0.236379
    61  N   -0.286462
    63  C    0.211105
    64  N   -0.304627
    66  C    0.142327
    67  N   -0.247248
    68  C    0.004448
    69  C    0.262501
    70  N   -0.296762
 Electronic spatial extent (au):  <R**2>=          22678.4392
 Charge=             -0.0000 electrons
 Dipole moment (field-independent basis, Debye):
    X=              5.7234    Y=              5.8996    Z=              3.9785  Tot=              9.1318
 Quadrupole moment (field-independent basis, Debye-Ang):
   XX=           -142.4922   YY=           -227.2320   ZZ=           -258.0187
   XY=             13.5877   XZ=             11.7075   YZ=             -8.6495
 Traceless Quadrupole moment (field-independent basis, Debye-Ang):
   XX=             66.7554   YY=            -17.9844   ZZ=            -48.7710
   XY=             13.5877   XZ=             11.7075   YZ=             -8.6495
 Octapole moment (field-independent basis, Debye-Ang**2):
  XXX=            -34.8561  YYY=             61.0976  ZZZ=             18.4677  XYY=             49.9525
  XXY=             47.0469  XXZ=            -40.1814  XZZ=             24.6705  YZZ=             43.6444
  YYZ=             63.3806  XYZ=             32.8875
 Hexadecapole moment (field-independent basis, Debye-Ang**3):
 XXXX=         -15903.4738 YYYY=          -4210.4778 ZZZZ=          -3251.8523 XXXY=            550.7408
 XXXZ=             89.4153 YYYX=             43.5011 YYYZ=            -75.5451 ZZZX=             60.5132
 ZZZY=              3.0722 XXYY=          -4172.3567 XXZZ=          -4169.9107 YYZZ=          -1332.0493
 XXYZ=             75.3461 YYXZ=            181.2504 ZZXY=             95.7051
 N-N= 5.572875754899D+03 E-N=-1.592645764162D+04  KE= 2.037841141513D+03
 No NMR shielding tensors so no spin-rotation constants.
 Leave Link  601 at Sat Jan 20 11:31:00 2018, MaxMem=  4294967296 cpu:              48.6 elap:               1.7
 (Enter /share/apps/g16/l9999.exe)
 1\1\GINC-COMPUTE-0-3\SP\RwB97XD\CC-pVDZ\C23H27N17O3\SATYA\20-Jan-2018\
 0\\#p wb97xd/cc-pvdz sp scf=(maxcycles=20)\\Base pair stacking\\0,1\N,
 0,3.6083,7.6024,-6.90268\C,0,3.83531,9.06021,-6.86712\C,0,2.67609,5.61
 264,-6.80702\N,0,4.00905,5.40165,-7.12861\C,0,4.51733,6.60885,-7.17337
 \H,0,5.55946,6.83473,-7.40117\N,0,0.39875,5.26632,-6.30032\C,0,0.29836
 ,6.59552,-6.19668\H,0,-0.69328,6.96868,-5.94437\N,0,1.2346,7.52857,-6.
 35718\C,0,2.41416,6.96417,-6.6646\C,0,1.5989,4.7294,-6.61086\N,0,1.701
 12,3.40277,-6.71476\H,0,2.56998,2.96196,-6.94273\H,0,0.91312,2.80463,-
 6.56836\H,0,4.15654,9.37083,-7.76183\H,0,2.98034,9.526,-6.64086\H,0,4.
 5237,9.27566,-6.17452\N,0,0.80898,6.33743,-3.22785\C,0,-0.01441,5.2418
 3,-3.1292\C,0,0.36393,7.74519,-3.19861\N,0,-3.19525,3.89127,-2.7828\H,
 0,-3.60908,2.98294,-2.72892\H,0,-3.81374,4.67562,-2.72806\N,0,-1.35756
 ,5.26704,-2.9901\C,0,-1.87055,4.05137,-2.92222\N,0,-1.12681,2.89796,-2
 .98552\H,0,-1.60392,2.01156,-2.92533\C,0,0.25629,2.84826,-3.12847\O,0,
 0.83162,1.75392,-3.175\C,0,0.82161,4.14663,-3.20278\N,0,2.14326,4.5466
 2,-3.34476\C,0,2.08718,5.85083,-3.35465\H,0,2.95136,6.50881,-3.45226\H
 ,0,0.6241,8.19654,-4.05149\H,0,-0.62942,7.77643,-3.09589\H,0,0.79256,8
 .21609,-2.42832\H,0,-4.62901,-2.06495,-3.21452\H,0,-4.23254,-2.22225,-
 1.50492\H,0,-4.31637,-0.62397,-2.24643\H,0,-0.22554,-3.98125,-3.50403\
 C,0,-0.69435,-3.01717,-3.3066\O,0,1.29454,-1.77167,-3.65325\C,0,0.0956
 7,-1.82626,-3.38024\H,0,-0.07003,0.20112,-3.15527\N,0,-0.59467,-0.6612
 5,-3.11295\O,0,-2.44704,0.53648,-2.57317\C,0,-1.92407,-0.54174,-2.7936
 6\H,0,-2.63782,-3.80831,-2.92869\C,0,-1.99357,-2.93279,-2.99754\C,0,-4
 .0427,-1.6565,-2.4049\N,0,-2.61867,-1.73426,-2.7423\H,0,-6.22884,1.075
 99,-5.20558\H,0,-5.25263,2.06326,-4.34861\H,0,-5.73353,0.63877,-3.7132
 9\H,0,0.85778,-0.16181,-7.0258\H,0,-0.31774,-1.39771,-6.99714\N,0,-0.0
 7372,-0.44748,-6.80032\C,0,-0.95224,0.40026,-6.26113\C,0,-3.06599,1.03
 763,-5.3737\N,0,-2.7105,2.30799,-5.12028\H,0,-1.07451,3.52849,-5.30617
 \C,0,-1.44548,2.51901,-5.4782\N,0,-0.56397,1.67125,-6.0184\H,0,-4.9928
 7,-1.55567,-5.4926\C,0,-4.16317,-0.8516,-5.562\N,0,-2.97776,-1.14154,-
 6.03995\C,0,-2.27228,0.04762,-5.92635\C,0,-5.46994,1.10974,-4.55524\N,
 0,-4.28674,0.44989,-5.14058\\Version=EM64L-G16RevA.03\State=1-A\HF=-20
 48.7380148\RMSD=6.537e-09\Dipole=-3.5641849,-0.4286806,0.1432644\Quadr
 upole=6.017617,18.2311495,-24.2487665,36.4410578,-19.6612731,-2.182977
 7\PG=C01 [X(C23H27N17O3)]\\@


 WHAT THE SLIME CONTAINS, THE GLOWING REVEALS
 BY THE FLAME'S BRIGHT HUE WHEN YOU IGNITE IT.
   --  LEONARD THURNEYSSER, 1531-1596
 DESCRIBING HIS FLAME PHOTOLYSIS ANALYTIC METHOD
 Job cpu time:       0 days  6 hours 24 minutes 14.5 seconds.
 Elapsed time:       0 days  0 hours 12 minutes 25.0 seconds.
 File lengths (MBytes):  RWF=    298 Int=      0 D2E=      0 Chk=     33 Scr=      1
 Normal termination of Gaussian 16 at Sat Jan 20 11:31:00 2018.
