 Entering Gaussian System, Link 0=g16
 Input=str25.10.0.5.com
 Output=str25.10.0.5.log
 Initial command:
 /share/apps/g16/l1.exe "/state/partition1/scr/Gau-8879.inp" -scrdir="/state/partition1/scr/"
 Entering Link 1 = /share/apps/g16/l1.exe PID=      8880.
  
 Copyright (c) 1988,1990,1992,1993,1995,1998,2003,2009,2016,
            Gaussian, Inc.  All Rights Reserved.
  
 This is part of the Gaussian(R) 16 program.  It is based on
 the Gaussian(R) 09 system (copyright 2009, Gaussian, Inc.),
 the Gaussian(R) 03 system (copyright 2003, Gaussian, Inc.),
 the Gaussian(R) 98 system (copyright 1998, Gaussian, Inc.),
 the Gaussian(R) 94 system (copyright 1995, Gaussian, Inc.),
 the Gaussian 92(TM) system (copyright 1992, Gaussian, Inc.),
 the Gaussian 90(TM) system (copyright 1990, Gaussian, Inc.),
 the Gaussian 88(TM) system (copyright 1988, Gaussian, Inc.),
 the Gaussian 86(TM) system (copyright 1986, Carnegie Mellon
 University), and the Gaussian 82(TM) system (copyright 1983,
 Carnegie Mellon University). Gaussian is a federally registered
 trademark of Gaussian, Inc.
  
 This software contains proprietary and confidential information,
 including trade secrets, belonging to Gaussian, Inc.
  
 This software is provided under written license and may be
 used, copied, transmitted, or stored only in accord with that
 written license.
  
 The following legend is applicable only to US Government
 contracts under FAR:
  
                    RESTRICTED RIGHTS LEGEND
  
 Use, reproduction and disclosure by the US Government is
 subject to restrictions as set forth in subparagraphs (a)
 and (c) of the Commercial Computer Software - Restricted
 Rights clause in FAR 52.227-19.
  
 Gaussian, Inc.
 340 Quinnipiac St., Bldg. 40, Wallingford CT 06492
  
  
 ---------------------------------------------------------------
 Warning -- This program may not be used in any manner that
 competes with the business of Gaussian, Inc. or will provide
 assistance to any competitor of Gaussian, Inc.  The licensee
 of this program is prohibited from giving any competitor of
 Gaussian, Inc. access to this program.  By using this program,
 the user acknowledges that Gaussian, Inc. is engaged in the
 business of creating and licensing software in the field of
 computational chemistry and represents and warrants to the
 licensee that it is not a competitor of Gaussian, Inc. and that
 it will not use this program in any manner prohibited above.
 ---------------------------------------------------------------
  

 Cite this work as:
 Gaussian 16, Revision A.03,
 M. J. Frisch, G. W. Trucks, H. B. Schlegel, G. E. Scuseria, 
 M. A. Robb, J. R. Cheeseman, G. Scalmani, V. Barone, 
 G. A. Petersson, H. Nakatsuji, X. Li, M. Caricato, A. V. Marenich, 
 J. Bloino, B. G. Janesko, R. Gomperts, B. Mennucci, H. P. Hratchian, 
 J. V. Ortiz, A. F. Izmaylov, J. L. Sonnenberg, D. Williams-Young, 
 F. Ding, F. Lipparini, F. Egidi, J. Goings, B. Peng, A. Petrone, 
 T. Henderson, D. Ranasinghe, V. G. Zakrzewski, J. Gao, N. Rega, 
 G. Zheng, W. Liang, M. Hada, M. Ehara, K. Toyota, R. Fukuda, 
 J. Hasegawa, M. Ishida, T. Nakajima, Y. Honda, O. Kitao, H. Nakai, 
 T. Vreven, K. Throssell, J. A. Montgomery, Jr., J. E. Peralta, 
 F. Ogliaro, M. J. Bearpark, J. J. Heyd, E. N. Brothers, K. N. Kudin, 
 V. N. Staroverov, T. A. Keith, R. Kobayashi, J. Normand, 
 K. Raghavachari, A. P. Rendell, J. C. Burant, S. S. Iyengar, 
 J. Tomasi, M. Cossi, J. M. Millam, M. Klene, C. Adamo, R. Cammi, 
 J. W. Ochterski, R. L. Martin, K. Morokuma, O. Farkas, 
 J. B. Foresman, and D. J. Fox, Gaussian, Inc., Wallingford CT, 2016.
 
 ******************************************
 Gaussian 16:  EM64L-G16RevA.03 25-Dec-2016
                20-Jan-2018 
 ******************************************
 %nprocshared=32
 Will use up to   32 processors via shared memory.
 %mem=32GB
 %chk=allatoms_t.chk
 ---------------------------------------
 #p wb97xd/cc-pvdz sp scf=(maxcycles=20)
 ---------------------------------------
 1/38=1,172=1/1;
 2/12=2,17=6,18=5,40=1/2;
 3/5=16,11=2,25=1,30=1,74=-58/1,2,3;
 4//1;
 5/5=2,7=20,38=5/2;
 6/7=2,8=2,9=2,10=2,28=1/1;
 99/5=1,9=1/99;
 Leave Link    1 at Sat Jan 20 10:18:43 2018, MaxMem=  4294967296 cpu:               2.7 elap:               0.1
 (Enter /share/apps/g16/l101.exe)
 ------------------
 Base pair stacking
 ------------------
 Symbolic Z-matrix:
 Charge =  0 Multiplicity = 1
 N                     4.15623   3.56742  -6.0097 
 C                     4.44381   4.99663  -6.23918 
 C                     3.16937   1.60347  -5.9304 
 N                     4.43204   1.42567  -5.38382 
 C                     4.97606   2.61599  -5.45346 
 H                     5.98222   2.85885  -5.11053 
 N                     0.97778   1.21666  -6.71161 
 C                     0.94647   2.51324  -7.03638 
 H                     0.01762   2.85676  -7.4897 
 N                     1.88585   3.44482  -6.88597 
 C                     2.98487   2.91843  -6.32072 
 C                     2.0978    0.71757  -6.14456 
 N                     2.13098  -0.57646  -5.81965 
 H                     2.9393   -0.98869  -5.39788 
 H                     1.34942  -1.17764  -5.98667 
 H                     5.23399   5.08585  -6.84568 
 H                     3.64998   5.43356  -6.66113 
 H                     4.64332   5.4429   -5.36681 
 N                     0.96484   4.38435  -3.31174 
 C                     0.14103   3.28883  -3.40786 
 C                     0.55181   5.78497  -3.53163 
 N                    -2.99497   1.9283   -4.02119 
 H                    -3.41479   1.02129  -4.03947 
 H                    -3.58786   2.70694  -4.22837 
 N                    -1.17359   3.3077   -3.71686 
 C                    -1.69543   2.094    -3.73198 
 N                    -0.98587   0.9482   -3.4652 
 H                    -1.46729   0.06275  -3.49977 
 C                     0.36745   0.90512  -3.14502 
 O                     0.91309  -0.1826   -2.92168 
 C                     0.94188   2.20146  -3.12489 
 N                     2.24229   2.60618  -2.85651 
 C                     2.20842   3.90545  -2.97884 
 H                     3.06511   4.56509  -2.83665 
 H                     1.08151   6.17633  -4.28333 
 H                    -0.42023   5.81147  -3.76121 
 H                     0.71136   6.31576  -2.69999 
 H                    -4.28194  -4.06059  -4.46335 
 H                    -4.46694  -4.08848  -2.71131 
 H                    -4.28474  -2.54941  -3.55358 
 H                    -0.04873  -5.939    -3.16024 
 C                    -0.54451  -4.96891  -3.19715 
 O                     1.46367  -3.72771  -2.96534 
 C                     0.24077  -3.77695  -3.09526 
 H                     0.03548  -1.74076  -3.08452 
 N                    -0.48474  -2.60412  -3.1532 
 O                    -2.3971   -1.39304  -3.33585 
 C                    -1.844    -2.47796  -3.29472 
 H                    -2.51442  -5.75418  -3.41766 
 C                    -1.87233  -4.87817  -3.33591 
 C                    -3.98696  -3.58731  -3.53866 
 N                    -2.53184  -3.67198  -3.38635 
 H                    -5.45021  -3.06792  -8.4453 
 H                    -5.04127  -1.81281  -7.48635 
 H                    -5.91019  -3.05411  -6.87953 
 H                     1.31486  -4.15389  -5.59572 
 H                     0.22657  -5.43097  -5.90361 
 N                     0.3964   -4.44572  -5.86297 
 C                    -0.5601   -3.56116  -6.1525 
 C                    -2.74816  -2.88871  -6.80208 
 N                    -2.49152  -1.57168  -6.73905 
 H                    -0.93656  -0.31293  -6.2938 
 C                    -1.22993  -1.35905  -6.37018 
 N                    -0.27039  -2.24364  -6.07975 
 H                    -4.48618  -5.57117  -7.28773 
 C                    -3.70445  -4.84445  -7.06477 
 N                    -2.48283  -5.1515   -6.70275 
 C                    -1.86587  -3.92054  -6.53298 
 C                    -5.18385  -2.80162  -7.51894 
 N                    -3.93456  -3.49267  -7.14516 
 
 ITRead=  0  0  0  0  0  0  0  0  0  0  0  0  0  0  0  0  0  0  0  0
 ITRead=  0  0  0  0  0  0  0  0  0  0  0  0  0  0  0  0  0  0  0  0
 ITRead=  0  0  0  0  0  0  0  0  0  0  0  0  0  0  0  0  0  0  0  0
 ITRead=  0  0  0  0  0  0  0  0  0  0
 MicOpt= -1 -1 -1 -1 -1 -1 -1 -1 -1 -1 -1 -1 -1 -1 -1 -1 -1 -1 -1 -1
 MicOpt= -1 -1 -1 -1 -1 -1 -1 -1 -1 -1 -1 -1 -1 -1 -1 -1 -1 -1 -1 -1
 MicOpt= -1 -1 -1 -1 -1 -1 -1 -1 -1 -1 -1 -1 -1 -1 -1 -1 -1 -1 -1 -1
 MicOpt= -1 -1 -1 -1 -1 -1 -1 -1 -1 -1
 NAtoms=     70 NQM=       70 NQMF=       0 NMMI=      0 NMMIF=      0
                NMic=       0 NMicF=      0.
                    Isotopes and Nuclear Properties:
 (Nuclear quadrupole moments (NQMom) in fm**2, nuclear magnetic moments (NMagM)
  in nuclear magnetons)

  Atom         1           2           3           4           5           6           7           8           9          10
 IAtWgt=          14          12          12          14          12           1          14          12           1          14
 AtmWgt=  14.0030740  12.0000000  12.0000000  14.0030740  12.0000000   1.0078250  14.0030740  12.0000000   1.0078250  14.0030740
 NucSpn=           2           0           0           2           0           1           2           0           1           2
 AtZEff=  -0.0000000  -0.0000000  -0.0000000  -0.0000000  -0.0000000  -0.0000000  -0.0000000  -0.0000000  -0.0000000  -0.0000000
 NQMom=    2.0440000   0.0000000   0.0000000   2.0440000   0.0000000   0.0000000   2.0440000   0.0000000   0.0000000   2.0440000
 NMagM=    0.4037610   0.0000000   0.0000000   0.4037610   0.0000000   2.7928460   0.4037610   0.0000000   2.7928460   0.4037610
 AtZNuc=   7.0000000   6.0000000   6.0000000   7.0000000   6.0000000   1.0000000   7.0000000   6.0000000   1.0000000   7.0000000

  Atom        11          12          13          14          15          16          17          18          19          20
 IAtWgt=          12          12          14           1           1           1           1           1          14          12
 AtmWgt=  12.0000000  12.0000000  14.0030740   1.0078250   1.0078250   1.0078250   1.0078250   1.0078250  14.0030740  12.0000000
 NucSpn=           0           0           2           1           1           1           1           1           2           0
 AtZEff=  -0.0000000  -0.0000000  -0.0000000  -0.0000000  -0.0000000  -0.0000000  -0.0000000  -0.0000000  -0.0000000  -0.0000000
 NQMom=    0.0000000   0.0000000   2.0440000   0.0000000   0.0000000   0.0000000   0.0000000   0.0000000   2.0440000   0.0000000
 NMagM=    0.0000000   0.0000000   0.4037610   2.7928460   2.7928460   2.7928460   2.7928460   2.7928460   0.4037610   0.0000000
 AtZNuc=   6.0000000   6.0000000   7.0000000   1.0000000   1.0000000   1.0000000   1.0000000   1.0000000   7.0000000   6.0000000

  Atom        21          22          23          24          25          26          27          28          29          30
 IAtWgt=          12          14           1           1          14          12          14           1          12          16
 AtmWgt=  12.0000000  14.0030740   1.0078250   1.0078250  14.0030740  12.0000000  14.0030740   1.0078250  12.0000000  15.9949146
 NucSpn=           0           2           1           1           2           0           2           1           0           0
 AtZEff=  -0.0000000  -0.0000000  -0.0000000  -0.0000000  -0.0000000  -0.0000000  -0.0000000  -0.0000000  -0.0000000  -0.0000000
 NQMom=    0.0000000   2.0440000   0.0000000   0.0000000   2.0440000   0.0000000   2.0440000   0.0000000   0.0000000   0.0000000
 NMagM=    0.0000000   0.4037610   2.7928460   2.7928460   0.4037610   0.0000000   0.4037610   2.7928460   0.0000000   0.0000000
 AtZNuc=   6.0000000   7.0000000   1.0000000   1.0000000   7.0000000   6.0000000   7.0000000   1.0000000   6.0000000   8.0000000

  Atom        31          32          33          34          35          36          37          38          39          40
 IAtWgt=          12          14          12           1           1           1           1           1           1           1
 AtmWgt=  12.0000000  14.0030740  12.0000000   1.0078250   1.0078250   1.0078250   1.0078250   1.0078250   1.0078250   1.0078250
 NucSpn=           0           2           0           1           1           1           1           1           1           1
 AtZEff=  -0.0000000  -0.0000000  -0.0000000  -0.0000000  -0.0000000  -0.0000000  -0.0000000  -0.0000000  -0.0000000  -0.0000000
 NQMom=    0.0000000   2.0440000   0.0000000   0.0000000   0.0000000   0.0000000   0.0000000   0.0000000   0.0000000   0.0000000
 NMagM=    0.0000000   0.4037610   0.0000000   2.7928460   2.7928460   2.7928460   2.7928460   2.7928460   2.7928460   2.7928460
 AtZNuc=   6.0000000   7.0000000   6.0000000   1.0000000   1.0000000   1.0000000   1.0000000   1.0000000   1.0000000   1.0000000

  Atom        41          42          43          44          45          46          47          48          49          50
 IAtWgt=           1          12          16          12           1          14          16          12           1          12
 AtmWgt=   1.0078250  12.0000000  15.9949146  12.0000000   1.0078250  14.0030740  15.9949146  12.0000000   1.0078250  12.0000000
 NucSpn=           1           0           0           0           1           2           0           0           1           0
 AtZEff=  -0.0000000  -0.0000000  -0.0000000  -0.0000000  -0.0000000  -0.0000000  -0.0000000  -0.0000000  -0.0000000  -0.0000000
 NQMom=    0.0000000   0.0000000   0.0000000   0.0000000   0.0000000   2.0440000   0.0000000   0.0000000   0.0000000   0.0000000
 NMagM=    2.7928460   0.0000000   0.0000000   0.0000000   2.7928460   0.4037610   0.0000000   0.0000000   2.7928460   0.0000000
 AtZNuc=   1.0000000   6.0000000   8.0000000   6.0000000   1.0000000   7.0000000   8.0000000   6.0000000   1.0000000   6.0000000

  Atom        51          52          53          54          55          56          57          58          59          60
 IAtWgt=          12          14           1           1           1           1           1          14          12          12
 AtmWgt=  12.0000000  14.0030740   1.0078250   1.0078250   1.0078250   1.0078250   1.0078250  14.0030740  12.0000000  12.0000000
 NucSpn=           0           2           1           1           1           1           1           2           0           0
 AtZEff=  -0.0000000  -0.0000000  -0.0000000  -0.0000000  -0.0000000  -0.0000000  -0.0000000  -0.0000000  -0.0000000  -0.0000000
 NQMom=    0.0000000   2.0440000   0.0000000   0.0000000   0.0000000   0.0000000   0.0000000   2.0440000   0.0000000   0.0000000
 NMagM=    0.0000000   0.4037610   2.7928460   2.7928460   2.7928460   2.7928460   2.7928460   0.4037610   0.0000000   0.0000000
 AtZNuc=   6.0000000   7.0000000   1.0000000   1.0000000   1.0000000   1.0000000   1.0000000   7.0000000   6.0000000   6.0000000

  Atom        61          62          63          64          65          66          67          68          69          70
 IAtWgt=          14           1          12          14           1          12          14          12          12          14
 AtmWgt=  14.0030740   1.0078250  12.0000000  14.0030740   1.0078250  12.0000000  14.0030740  12.0000000  12.0000000  14.0030740
 NucSpn=           2           1           0           2           1           0           2           0           0           2
 AtZEff=  -0.0000000  -0.0000000  -0.0000000  -0.0000000  -0.0000000  -0.0000000  -0.0000000  -0.0000000  -0.0000000  -0.0000000
 NQMom=    2.0440000   0.0000000   0.0000000   2.0440000   0.0000000   0.0000000   2.0440000   0.0000000   0.0000000   2.0440000
 NMagM=    0.4037610   2.7928460   0.0000000   0.4037610   2.7928460   0.0000000   0.4037610   0.0000000   0.0000000   0.4037610
 AtZNuc=   7.0000000   1.0000000   6.0000000   7.0000000   1.0000000   6.0000000   7.0000000   6.0000000   6.0000000   7.0000000
 Leave Link  101 at Sat Jan 20 10:18:43 2018, MaxMem=  4294967296 cpu:               7.5 elap:               0.3
 (Enter /share/apps/g16/l202.exe)
 Stoichiometry    C23H27N17O3
 Framework group  C1[X(C23H27N17O3)]
 Deg. of freedom   204
 Full point group                 C1      NOp   1
 Largest Abelian subgroup         C1      NOp   1
 Largest concise Abelian subgroup C1      NOp   1
                         Standard orientation:                         
 ---------------------------------------------------------------------
 Center     Atomic      Atomic             Coordinates (Angstroms)
 Number     Number       Type             X           Y           Z
 ---------------------------------------------------------------------
      1          7           0       -5.490800   -1.741501    0.957965
      2          6           0       -6.827139   -1.290072    1.392033
      3          6           0       -3.315542   -1.947357    0.706658
      4          7           0       -3.893074   -2.913073   -0.104852
      5          6           0       -5.180475   -2.750407    0.079017
      6          1           0       -5.955912   -3.344277   -0.405706
      7          7           0       -1.743060   -0.588859    1.822347
      8          6           0       -2.788007    0.025363    2.386611
      9          1           0       -2.537544    0.832939    3.073164
     10          7           0       -4.089775   -0.207115    2.230872
     11          6           0       -4.287805   -1.217432    1.368038
     12          6           0       -1.975499   -1.601417    0.958761
     13          7           0       -0.933714   -2.215781    0.394472
     14          1           0       -1.058809   -2.970317   -0.250688
     15          1           0        0.006802   -1.942926    0.597271
     16          1           0       -7.308843   -2.046889    1.834045
     17          1           0       -6.730592   -0.534406    2.039152
     18          1           0       -7.351323   -0.981913    0.598143
     19          7           0       -4.536405    1.997145   -0.842865
     20          6           0       -3.164915    2.065291   -0.793494
     21          6           0       -5.461797    3.002797   -0.283404
     22          7           0       -0.268421    3.724620    0.164976
     23          1           0        0.718979    3.585601    0.094510
     24          1           0       -0.577714    4.554425    0.630254
     25          7           0       -2.438111    3.054445   -0.230118
     26          6           0       -1.139392    2.838659   -0.341372
     27          7           0       -0.592258    1.738971   -0.956868
     28          1           0        0.412094    1.656606   -0.995275
     29          6           0       -1.320890    0.708913   -1.543316
     30          8           0       -0.729231   -0.239674   -2.073279
     31          6           0       -2.717671    0.926676   -1.431723
     32          7           0       -3.786860    0.159158   -1.872907
     33          6           0       -4.842536    0.831734   -1.502229
     34          1           0       -5.872019    0.521916   -1.685092
     35          1           0       -6.043515    2.575002    0.407532
     36          1           0       -4.934772    3.740437    0.136599
     37          1           0       -6.032160    3.376355   -1.014130
     38          1           0        5.445339    1.518658   -0.288102
     39          1           0        5.485129    2.128665   -1.940662
     40          1           0        4.145738    2.556544   -0.875626
     41          1           0        4.601334   -2.531991   -2.742993
     42          6           0        4.070776   -1.634599   -2.424512
     43          8           0        1.916201   -2.547643   -2.813427
     44          6           0        2.640128   -1.619671   -2.453446
     45          1           0        1.060000   -0.387655   -2.036723
     46          7           0        2.069120   -0.436358   -2.030397
     47          8           0        2.129086    1.692867   -1.242995
     48          6           0        2.723208    0.690314   -1.598758
     49          1           0        5.824497   -0.511396   -1.967675
     50          6           0        4.736787   -0.551096   -2.008525
     51          6           0        4.843311    1.777900   -1.146248
     52          7           0        4.101155    0.598298   -1.599554
     53          1           0        5.461195    1.902172    3.961467
     54          1           0        4.144308    2.486742    3.195826
     55          1           0        5.627572    2.705817    2.550836
     56          1           0        2.481680   -3.362898   -0.335874
     57          1           0        4.160847   -3.233082   -0.064485
     58          7           0        3.245610   -2.844998    0.049285
     59          6           0        3.053453   -1.688182    0.686482
     60          6           0        3.736714    0.256187    1.875739
     61          7           0        2.496459    0.753364    2.013532
     62          1           0        0.567606    0.273842    1.513349
     63          6           0        1.603562   -0.055811    1.447089
     64          7           0        1.794018   -1.214856    0.808414
     65          1           0        6.952713    0.129468    2.181445
     66          6           0        5.904971   -0.062815    1.948636
     67          7           0        5.466663   -1.112851    1.298247
     68          6           0        4.093392   -0.923047    1.245095
     69          6           0        5.047034    2.076946    3.068197
     70          7           0        4.912155    0.807236    2.328175
 ---------------------------------------------------------------------
 Rotational constants (GHZ):           0.1525022           0.0533019           0.0513288
 Leave Link  202 at Sat Jan 20 10:18:43 2018, MaxMem=  4294967296 cpu:               0.4 elap:               0.0
 (Enter /share/apps/g16/l301.exe)
 Standard basis: CC-pVDZ (5D, 7F)
 Ernie: Thresh=  0.10000D-02 Tol=  0.10000D-05 Strict=F.
 Ernie:  86 primitive shells out of 1081 were deleted.
 There are   780 symmetry adapted cartesian basis functions of A   symmetry.
 There are   737 symmetry adapted basis functions of A   symmetry.
   737 basis functions,  1608 primitive gaussians,   780 cartesian basis functions
   154 alpha electrons      154 beta electrons
       nuclear repulsion energy      5533.6267338177 Hartrees.
 IExCor= 4639 DFT=T Ex+Corr=wB97XD ExCW=0 ScaHFX=  1.000000
 ScaDFX=  1.000000  1.000000  1.000000  1.000000 ScalE2=  1.000000  1.000000
 IRadAn=      5 IRanWt=     -1 IRanGd=            0 ICorTp=0 IEmpDi=121
 HFx  wShort=  0.000000 wLong=  0.200000 cFull=  0.222036 cShort=  0.000000 cLong=  0.777964
 DFx  wShort=  0.000000 wLong=  0.200000 cFull=  0.000000 cShort=  0.000000 cLong=  1.000000
 NAtoms=   70 NActive=   70 NUniq=   70 SFac= 1.00D+00 NAtFMM=   60 NAOKFM=T Big=T
 Integral buffers will be    131072 words long.
 Raffenetti 2 integral format.
 Two-electron integral symmetry is turned on.
 R6Disp:  Grimme-D2 Dispersion energy=       -0.0728550578 Hartrees.
 Nuclear repulsion after empirical dispersion term =     5533.5538787599 Hartrees.
 Leave Link  301 at Sat Jan 20 10:18:43 2018, MaxMem=  4294967296 cpu:               2.1 elap:               0.1
 (Enter /share/apps/g16/l302.exe)
 NPDir=0 NMtPBC=     1 NCelOv=     1 NCel=       1 NClECP=     1 NCelD=      1
         NCelK=      1 NCelE2=     1 NClLst=     1 CellRange=     0.0.
 One-electron integrals computed using PRISM.
 One-electron integral symmetry used in STVInt
 NBasis=   737 RedAO= T EigKep=  6.58D-04  NBF=   737
 NBsUse=   737 1.00D-06 EigRej= -1.00D+00 NBFU=   737
 Precomputing XC quadrature grid using
 IXCGrd= 4 IRadAn=           5 IRanWt=          -1 IRanGd=           0 AccXCQ= 0.00D+00.
 Generated NRdTot=       0 NPtTot=           0 NUsed=           0 NTot=          32
 NSgBfM=   769   768   769   769   769 MxSgAt=    70 MxSgA2=    70.
 Leave Link  302 at Sat Jan 20 10:18:48 2018, MaxMem=  4294967296 cpu:             135.5 elap:               4.3
 (Enter /share/apps/g16/l303.exe)
 DipDrv:  MaxL=1.
 Leave Link  303 at Sat Jan 20 10:18:48 2018, MaxMem=  4294967296 cpu:              16.2 elap:               0.6
 (Enter /share/apps/g16/l401.exe)
 ExpMin= 1.22D-01 ExpMax= 1.17D+04 ExpMxC= 4.01D+02 IAcc=3 IRadAn=         5 AccDes= 0.00D+00
 Harris functional with IExCor= 4639 and IRadAn=       5 diagonalized for initial guess.
 HarFok:  IExCor= 4639 AccDes= 0.00D+00 IRadAn=         5 IDoV= 1 UseB2=F ITyADJ=14
 ICtDFT=  3500011 ScaDFX=  1.000000  1.000000  1.000000  1.000000
 FoFCou: FMM=F IPFlag=           0 FMFlag=      100000 FMFlg1=        2001
         NFxFlg=           0 DoJE=T BraDBF=F KetDBF=T FulRan=T
         wScrn=  0.000000 ICntrl=       500 IOpCl=  0 I1Cent=   200000004 NGrid=           0
         NMat0=    1 NMatS0=      1 NMatT0=    0 NMatD0=    1 NMtDS0=    0 NMtDT0=    0
 Petite list used in FoFCou.
 Harris En= -1963.88570621634    
 JPrj=0 DoOrth=F DoCkMO=F.
 Leave Link  401 at Sat Jan 20 10:19:01 2018, MaxMem=  4294967296 cpu:             412.4 elap:              12.9
 (Enter /share/apps/g16/l502.exe)
 Integral symmetry usage will be decided dynamically.
 Closed shell SCF:
 Using DIIS extrapolation, IDIIS=  1040.
 NGot=  4294967296 LenX=  4293717438 LenY=  4293108258
 Requested convergence on RMS density matrix=1.00D-08 within  20 cycles.
 Requested convergence on MAX density matrix=1.00D-06.
 Requested convergence on             energy=1.00D-06.
 No special actions if energy rises.
 Fock matrices will be formed incrementally for  20 cycles.
 Integral accuracy reduced to 1.0D-05 until final iterations.

 Cycle   1  Pass 0  IDiag  1:
 FoFJK:  IHMeth= 1 ICntrl=       0 DoSepK=T KAlg= 0 I1Cent=           0 FoldK=F
 IRaf=         1 NMat=       1 IRICut=       1 DoRegI=T DoRafI=F ISym2E= 0 IDoP0=0 IntGTp=1.
 FoFCou: FMM=T IPFlag=           0 FMFlag=      100000 FMFlg1=        2001
         NFxFlg=           0 DoJE=T BraDBF=F KetDBF=F FulRan=T
         wScrn=  0.000000 ICntrl=       500 IOpCl=  0 I1Cent=           0 NGrid=           0
         NMat0=    1 NMatS0=      1 NMatT0=    0 NMatD0=    1 NMtDS0=    0 NMtDT0=    0
 Symmetry not used in FoFCou.
 FMM levels:  10  Number of levels for PrismC:   9
 E= -2048.31913328259    
 DIIS: error= 2.42D-02 at cycle   1 NSaved=   1.
 NSaved= 1 IEnMin= 1 EnMin= -2048.31913328259     IErMin= 1 ErrMin= 2.42D-02
 ErrMax= 2.42D-02  0.00D+00 EMaxC= 1.00D-01 BMatC= 8.32D-01 BMatP= 8.32D-01
 IDIUse=3 WtCom= 7.58D-01 WtEn= 2.42D-01
 Coeff-Com:  0.100D+01
 Coeff-En:   0.100D+01
 Coeff:      0.100D+01
 Gap=     0.264 Goal=   None    Shift=    0.000
 GapD=    0.264 DampG=1.000 DampE=0.500 DampFc=0.5000 IDamp=-1.
 Damping current iteration by 5.00D-01
 RMSDP=1.57D-03 MaxDP=1.23D-01              OVMax= 1.80D-01

 Cycle   2  Pass 0  IDiag  1:
 RMSU=  7.84D-04    CP:  9.98D-01
 E= -2048.51525042525     Delta-E=       -0.196117142662 Rises=F Damp=T
 DIIS: error= 1.35D-02 at cycle   2 NSaved=   2.
 NSaved= 2 IEnMin= 2 EnMin= -2048.51525042525     IErMin= 2 ErrMin= 1.35D-02
 ErrMax= 1.35D-02  0.00D+00 EMaxC= 1.00D-01 BMatC= 1.45D-01 BMatP= 8.32D-01
 IDIUse=3 WtCom= 8.65D-01 WtEn= 1.35D-01
 Coeff-Com: -0.196D+00 0.120D+01
 Coeff-En:   0.000D+00 0.100D+01
 Coeff:     -0.170D+00 0.117D+01
 Gap=     0.352 Goal=   None    Shift=    0.000
 RMSDP=5.86D-04 MaxDP=3.30D-02 DE=-1.96D-01 OVMax= 1.32D-01

 Cycle   3  Pass 0  IDiag  1:
 RMSU=  5.75D-04    CP:  9.94D-01  1.13D+00
 E= -2048.69356072683     Delta-E=       -0.178310301580 Rises=F Damp=F
 DIIS: error= 7.84D-03 at cycle   3 NSaved=   3.
 NSaved= 3 IEnMin= 3 EnMin= -2048.69356072683     IErMin= 3 ErrMin= 7.84D-03
 ErrMax= 7.84D-03  0.00D+00 EMaxC= 1.00D-01 BMatC= 6.37D-02 BMatP= 1.45D-01
 IDIUse=3 WtCom= 9.22D-01 WtEn= 7.84D-02
 Coeff-Com: -0.231D+00 0.551D+00 0.681D+00
 Coeff-En:   0.000D+00 0.000D+00 0.100D+01
 Coeff:     -0.213D+00 0.508D+00 0.706D+00
 Gap=     0.282 Goal=   None    Shift=    0.000
 RMSDP=3.63D-04 MaxDP=3.10D-02 DE=-1.78D-01 OVMax= 5.57D-02

 Cycle   4  Pass 0  IDiag  1:
 RMSU=  2.06D-04    CP:  9.95D-01  1.42D+00  6.62D-01
 E= -2048.74133516482     Delta-E=       -0.047774437994 Rises=F Damp=F
 DIIS: error= 2.58D-03 at cycle   4 NSaved=   4.
 NSaved= 4 IEnMin= 4 EnMin= -2048.74133516482     IErMin= 4 ErrMin= 2.58D-03
 ErrMax= 2.58D-03  0.00D+00 EMaxC= 1.00D-01 BMatC= 9.57D-03 BMatP= 6.37D-02
 IDIUse=3 WtCom= 9.74D-01 WtEn= 2.58D-02
 Coeff-Com: -0.949D-01 0.184D+00 0.379D+00 0.532D+00
 Coeff-En:   0.000D+00 0.000D+00 0.767D-01 0.923D+00
 Coeff:     -0.924D-01 0.179D+00 0.372D+00 0.542D+00
 Gap=     0.287 Goal=   None    Shift=    0.000
 RMSDP=1.28D-04 MaxDP=1.06D-02 DE=-4.78D-02 OVMax= 1.51D-02

 Cycle   5  Pass 0  IDiag  1:
 RMSU=  6.12D-05    CP:  9.94D-01  1.40D+00  7.98D-01  6.20D-01
 E= -2048.74929927390     Delta-E=       -0.007964109073 Rises=F Damp=F
 DIIS: error= 5.34D-04 at cycle   5 NSaved=   5.
 NSaved= 5 IEnMin= 5 EnMin= -2048.74929927390     IErMin= 5 ErrMin= 5.34D-04
 ErrMax= 5.34D-04  0.00D+00 EMaxC= 1.00D-01 BMatC= 2.76D-04 BMatP= 9.57D-03
 IDIUse=3 WtCom= 9.95D-01 WtEn= 5.34D-03
 Coeff-Com: -0.240D-01 0.410D-01 0.120D+00 0.234D+00 0.629D+00
 Coeff-En:   0.000D+00 0.000D+00 0.000D+00 0.000D+00 0.100D+01
 Coeff:     -0.239D-01 0.408D-01 0.120D+00 0.233D+00 0.631D+00
 Gap=     0.287 Goal=   None    Shift=    0.000
 RMSDP=2.62D-05 MaxDP=1.38D-03 DE=-7.96D-03 OVMax= 3.10D-03

 Failed to achieve initial convergence to 1.0D-08 in  6 cycles.
 Switch to full accuracy anyway.
 Cycle   6  Pass 1  IDiag  1:
 E= -2048.74955534662     Delta-E=       -0.000256072728 Rises=F Damp=F
 DIIS: error= 2.46D-04 at cycle   1 NSaved=   1.
 NSaved= 1 IEnMin= 1 EnMin= -2048.74955534662     IErMin= 1 ErrMin= 2.46D-04
 ErrMax= 2.46D-04  0.00D+00 EMaxC= 1.00D-01 BMatC= 7.59D-05 BMatP= 7.59D-05
 IDIUse=3 WtCom= 9.98D-01 WtEn= 2.46D-03
 Coeff-Com:  0.100D+01
 Coeff-En:   0.100D+01
 Coeff:      0.100D+01
 Gap=     0.287 Goal=   None    Shift=    0.000
 RMSDP=2.62D-05 MaxDP=1.38D-03 DE=-2.56D-04 OVMax= 2.44D-03

 Cycle   7  Pass 1  IDiag  1:
 RMSU=  1.16D-04    CP:  1.00D+00
 E= -2048.74961009032     Delta-E=       -0.000054743697 Rises=F Damp=F
 DIIS: error= 2.30D-04 at cycle   2 NSaved=   2.
 NSaved= 2 IEnMin= 2 EnMin= -2048.74961009032     IErMin= 2 ErrMin= 2.30D-04
 ErrMax= 2.30D-04  0.00D+00 EMaxC= 1.00D-01 BMatC= 4.36D-05 BMatP= 7.59D-05
 IDIUse=3 WtCom= 9.98D-01 WtEn= 2.30D-03
 Coeff-Com:  0.407D+00 0.593D+00
 Coeff-En:   0.000D+00 0.100D+01
 Coeff:      0.406D+00 0.594D+00
 Gap=     0.287 Goal=   None    Shift=    0.000
 RMSDP=1.16D-05 MaxDP=8.29D-04 DE=-5.47D-05 OVMax= 1.52D-03

 Cycle   8  Pass 1  IDiag  1:
 RMSU=  1.13D-05    CP:  1.00D+00  1.02D+00
 E= -2048.74964211365     Delta-E=       -0.000032023329 Rises=F Damp=F
 DIIS: error= 8.68D-05 at cycle   3 NSaved=   3.
 NSaved= 3 IEnMin= 3 EnMin= -2048.74964211365     IErMin= 3 ErrMin= 8.68D-05
 ErrMax= 8.68D-05  0.00D+00 EMaxC= 1.00D-01 BMatC= 1.02D-05 BMatP= 4.36D-05
 IDIUse=1 WtCom= 1.00D+00 WtEn= 0.00D+00
 Coeff-Com: -0.195D-01 0.313D+00 0.707D+00
 Coeff:     -0.195D-01 0.313D+00 0.707D+00
 Gap=     0.287 Goal=   None    Shift=    0.000
 RMSDP=5.73D-06 MaxDP=4.19D-04 DE=-3.20D-05 OVMax= 5.58D-04

 Cycle   9  Pass 1  IDiag  1:
 RMSU=  3.85D-06    CP:  1.00D+00  1.05D+00  7.57D-01
 E= -2048.74965193388     Delta-E=       -0.000009820232 Rises=F Damp=F
 DIIS: error= 2.00D-05 at cycle   4 NSaved=   4.
 NSaved= 4 IEnMin= 4 EnMin= -2048.74965193388     IErMin= 4 ErrMin= 2.00D-05
 ErrMax= 2.00D-05  0.00D+00 EMaxC= 1.00D-01 BMatC= 4.99D-07 BMatP= 1.02D-05
 IDIUse=1 WtCom= 1.00D+00 WtEn= 0.00D+00
 Coeff-Com: -0.299D-01 0.862D-01 0.262D+00 0.682D+00
 Coeff:     -0.299D-01 0.862D-01 0.262D+00 0.682D+00
 Gap=     0.287 Goal=   None    Shift=    0.000
 RMSDP=1.45D-06 MaxDP=1.13D-04 DE=-9.82D-06 OVMax= 4.43D-04

 Cycle  10  Pass 1  IDiag  1:
 RMSU=  1.29D-06    CP:  1.00D+00  1.05D+00  7.93D-01  1.10D+00
 E= -2048.74965277133     Delta-E=       -0.000000837445 Rises=F Damp=F
 DIIS: error= 1.40D-05 at cycle   5 NSaved=   5.
 NSaved= 5 IEnMin= 5 EnMin= -2048.74965277133     IErMin= 5 ErrMin= 1.40D-05
 ErrMax= 1.40D-05  0.00D+00 EMaxC= 1.00D-01 BMatC= 1.20D-07 BMatP= 4.99D-07
 IDIUse=1 WtCom= 1.00D+00 WtEn= 0.00D+00
 Coeff-Com: -0.287D-02-0.575D-01-0.122D+00 0.206D+00 0.976D+00
 Coeff:     -0.287D-02-0.575D-01-0.122D+00 0.206D+00 0.976D+00
 Gap=     0.287 Goal=   None    Shift=    0.000
 RMSDP=1.22D-06 MaxDP=7.03D-05 DE=-8.37D-07 OVMax= 2.34D-04

 Cycle  11  Pass 1  IDiag  1:
 RMSU=  4.98D-07    CP:  1.00D+00  1.05D+00  8.04D-01  1.39D+00  1.18D+00
 E= -2048.74965303656     Delta-E=       -0.000000265232 Rises=F Damp=F
 DIIS: error= 5.47D-06 at cycle   6 NSaved=   6.
 NSaved= 6 IEnMin= 6 EnMin= -2048.74965303656     IErMin= 6 ErrMin= 5.47D-06
 ErrMax= 5.47D-06  0.00D+00 EMaxC= 1.00D-01 BMatC= 2.90D-08 BMatP= 1.20D-07
 IDIUse=1 WtCom= 1.00D+00 WtEn= 0.00D+00
 Coeff-Com:  0.468D-02-0.467D-01-0.116D+00-0.224D-02 0.525D+00 0.636D+00
 Coeff:      0.468D-02-0.467D-01-0.116D+00-0.224D-02 0.525D+00 0.636D+00
 Gap=     0.287 Goal=   None    Shift=    0.000
 RMSDP=3.81D-07 MaxDP=3.31D-05 DE=-2.65D-07 OVMax= 1.18D-04

 Cycle  12  Pass 1  IDiag  1:
 RMSU=  1.88D-07    CP:  1.00D+00  1.05D+00  8.06D-01  1.46D+00  1.31D+00
                    CP:  9.36D-01
 E= -2048.74965307957     Delta-E=       -0.000000043011 Rises=F Damp=F
 DIIS: error= 1.04D-06 at cycle   7 NSaved=   7.
 NSaved= 7 IEnMin= 7 EnMin= -2048.74965307957     IErMin= 7 ErrMin= 1.04D-06
 ErrMax= 1.04D-06  0.00D+00 EMaxC= 1.00D-01 BMatC= 7.81D-10 BMatP= 2.90D-08
 IDIUse=1 WtCom= 1.00D+00 WtEn= 0.00D+00
 Coeff-Com:  0.102D-02-0.661D-02-0.178D-01-0.866D-02 0.461D-01 0.123D+00
 Coeff-Com:  0.863D+00
 Coeff:      0.102D-02-0.661D-02-0.178D-01-0.866D-02 0.461D-01 0.123D+00
 Coeff:      0.863D+00
 Gap=     0.287 Goal=   None    Shift=    0.000
 RMSDP=9.07D-08 MaxDP=4.96D-06 DE=-4.30D-08 OVMax= 2.14D-05

 Cycle  13  Pass 1  IDiag  1:
 RMSU=  5.21D-08    CP:  1.00D+00  1.05D+00  8.06D-01  1.47D+00  1.33D+00
                    CP:  1.03D+00  1.16D+00
 E= -2048.74965308139     Delta-E=       -0.000000001817 Rises=F Damp=F
 DIIS: error= 7.60D-07 at cycle   8 NSaved=   8.
 NSaved= 8 IEnMin= 8 EnMin= -2048.74965308139     IErMin= 8 ErrMin= 7.60D-07
 ErrMax= 7.60D-07  0.00D+00 EMaxC= 1.00D-01 BMatC= 3.38D-10 BMatP= 7.81D-10
 IDIUse=1 WtCom= 1.00D+00 WtEn= 0.00D+00
 Coeff-Com: -0.769D-03 0.947D-02 0.228D-01-0.197D-02-0.119D+00-0.108D+00
 Coeff-Com:  0.436D+00 0.761D+00
 Coeff:     -0.769D-03 0.947D-02 0.228D-01-0.197D-02-0.119D+00-0.108D+00
 Coeff:      0.436D+00 0.761D+00
 Gap=     0.287 Goal=   None    Shift=    0.000
 RMSDP=4.87D-08 MaxDP=2.74D-06 DE=-1.82D-09 OVMax= 1.05D-05

 Cycle  14  Pass 1  IDiag  1:
 RMSU=  2.80D-08    CP:  1.00D+00  1.05D+00  8.06D-01  1.47D+00  1.34D+00
                    CP:  1.07D+00  1.31D+00  1.11D+00
 E= -2048.74965308176     Delta-E=       -0.000000000371 Rises=F Damp=F
 DIIS: error= 1.98D-07 at cycle   9 NSaved=   9.
 NSaved= 9 IEnMin= 9 EnMin= -2048.74965308176     IErMin= 9 ErrMin= 1.98D-07
 ErrMax= 1.98D-07  0.00D+00 EMaxC= 1.00D-01 BMatC= 3.04D-11 BMatP= 3.38D-10
 IDIUse=1 WtCom= 1.00D+00 WtEn= 0.00D+00
 Coeff-Com: -0.423D-03 0.460D-02 0.113D-01 0.171D-03-0.532D-01-0.579D-01
 Coeff-Com:  0.839D-01 0.294D+00 0.717D+00
 Coeff:     -0.423D-03 0.460D-02 0.113D-01 0.171D-03-0.532D-01-0.579D-01
 Coeff:      0.839D-01 0.294D+00 0.717D+00
 Gap=     0.287 Goal=   None    Shift=    0.000
 RMSDP=1.41D-08 MaxDP=9.48D-07 DE=-3.71D-10 OVMax= 3.33D-06

 Cycle  15  Pass 1  IDiag  1:
 RMSU=  9.05D-09    CP:  1.00D+00  1.05D+00  8.06D-01  1.47D+00  1.34D+00
                    CP:  1.08D+00  1.35D+00  1.24D+00  1.12D+00
 E= -2048.74965308187     Delta-E=       -0.000000000109 Rises=F Damp=F
 DIIS: error= 9.59D-08 at cycle  10 NSaved=  10.
 NSaved=10 IEnMin=10 EnMin= -2048.74965308187     IErMin=10 ErrMin= 9.59D-08
 ErrMax= 9.59D-08  0.00D+00 EMaxC= 1.00D-01 BMatC= 5.68D-12 BMatP= 3.04D-11
 IDIUse=1 WtCom= 1.00D+00 WtEn= 0.00D+00
 Coeff-Com:  0.176D-04-0.451D-03-0.976D-03 0.189D-03 0.707D-02 0.317D-02
 Coeff-Com: -0.595D-01-0.645D-01 0.275D+00 0.840D+00
 Coeff:      0.176D-04-0.451D-03-0.976D-03 0.189D-03 0.707D-02 0.317D-02
 Coeff:     -0.595D-01-0.645D-01 0.275D+00 0.840D+00
 Gap=     0.287 Goal=   None    Shift=    0.000
 RMSDP=7.01D-09 MaxDP=4.27D-07 DE=-1.09D-10 OVMax= 1.52D-06

 SCF Done:  E(RwB97XD) =  -2048.74965308     A.U. after   15 cycles
            NFock= 15  Conv=0.70D-08     -V/T= 2.0054
 KE= 2.037731829981D+03 PE=-1.584778183485D+04 EE= 6.227746473028D+03
 Leave Link  502 at Sat Jan 20 10:30:21 2018, MaxMem=  4294967296 cpu:           21079.0 elap:             679.7
 (Enter /share/apps/g16/l601.exe)
 Copying SCF densities to generalized density rwf, IOpCl= 0 IROHF=0.

 **********************************************************************

            Population analysis using the SCF density.

 **********************************************************************

 Orbital symmetries:
       Occupied  (A) (A) (A) (A) (A) (A) (A) (A) (A) (A) (A) (A)
                 (A) (A) (A) (A) (A) (A) (A) (A) (A) (A) (A) (A)
                 (A) (A) (A) (A) (A) (A) (A) (A) (A) (A) (A) (A)
                 (A) (A) (A) (A) (A) (A) (A) (A) (A) (A) (A) (A)
                 (A) (A) (A) (A) (A) (A) (A) (A) (A) (A) (A) (A)
                 (A) (A) (A) (A) (A) (A) (A) (A) (A) (A) (A) (A)
                 (A) (A) (A) (A) (A) (A) (A) (A) (A) (A) (A) (A)
                 (A) (A) (A) (A) (A) (A) (A) (A) (A) (A) (A) (A)
                 (A) (A) (A) (A) (A) (A) (A) (A) (A) (A) (A) (A)
                 (A) (A) (A) (A) (A) (A) (A) (A) (A) (A) (A) (A)
                 (A) (A) (A) (A) (A) (A) (A) (A) (A) (A) (A) (A)
                 (A) (A) (A) (A) (A) (A) (A) (A) (A) (A) (A) (A)
                 (A) (A) (A) (A) (A) (A) (A) (A) (A) (A)
       Virtual   (A) (A) (A) (A) (A) (A) (A) (A) (A) (A) (A) (A)
                 (A) (A) (A) (A) (A) (A) (A) (A) (A) (A) (A) (A)
                 (A) (A) (A) (A) (A) (A) (A) (A) (A) (A) (A) (A)
                 (A) (A) (A) (A) (A) (A) (A) (A) (A) (A) (A) (A)
                 (A) (A) (A) (A) (A) (A) (A) (A) (A) (A) (A) (A)
                 (A) (A) (A) (A) (A) (A) (A) (A) (A) (A) (A) (A)
                 (A) (A) (A) (A) (A) (A) (A) (A) (A) (A) (A) (A)
                 (A) (A) (A) (A) (A) (A) (A) (A) (A) (A) (A) (A)
                 (A) (A) (A) (A) (A) (A) (A) (A) (A) (A) (A) (A)
                 (A) (A) (A) (A) (A) (A) (A) (A) (A) (A) (A) (A)
                 (A) (A) (A) (A) (A) (A) (A) (A) (A) (A) (A) (A)
                 (A) (A) (A) (A) (A) (A) (A) (A) (A) (A) (A) (A)
                 (A) (A) (A) (A) (A) (A) (A) (A) (A) (A) (A) (A)
                 (A) (A) (A) (A) (A) (A) (A) (A) (A) (A) (A) (A)
                 (A) (A) (A) (A) (A) (A) (A) (A) (A) (A) (A) (A)
                 (A) (A) (A) (A) (A) (A) (A) (A) (A) (A) (A) (A)
                 (A) (A) (A) (A) (A) (A) (A) (A) (A) (A) (A) (A)
                 (A) (A) (A) (A) (A) (A) (A) (A) (A) (A) (A) (A)
                 (A) (A) (A) (A) (A) (A) (A) (A) (A) (A) (A) (A)
                 (A) (A) (A) (A) (A) (A) (A) (A) (A) (A) (A) (A)
                 (A) (A) (A) (A) (A) (A) (A) (A) (A) (A) (A) (A)
                 (A) (A) (A) (A) (A) (A) (A) (A) (A) (A) (A) (A)
                 (A) (A) (A) (A) (A) (A) (A) (A) (A) (A) (A) (A)
                 (A) (A) (A) (A) (A) (A) (A) (A) (A) (A) (A) (A)
                 (A) (A) (A) (A) (A) (A) (A) (A) (A) (A) (A) (A)
                 (A) (A) (A) (A) (A) (A) (A) (A) (A) (A) (A) (A)
                 (A) (A) (A) (A) (A) (A) (A) (A) (A) (A) (A) (A)
                 (A) (A) (A) (A) (A) (A) (A) (A) (A) (A) (A) (A)
                 (A) (A) (A) (A) (A) (A) (A) (A) (A) (A) (A) (A)
                 (A) (A) (A) (A) (A) (A) (A) (A) (A) (A) (A) (A)
                 (A) (A) (A) (A) (A) (A) (A) (A) (A) (A) (A) (A)
                 (A) (A) (A) (A) (A) (A) (A) (A) (A) (A) (A) (A)
                 (A) (A) (A) (A) (A) (A) (A) (A) (A) (A) (A) (A)
                 (A) (A) (A) (A) (A) (A) (A) (A) (A) (A) (A) (A)
                 (A) (A) (A) (A) (A) (A) (A) (A) (A) (A) (A) (A)
                 (A) (A) (A) (A) (A) (A) (A) (A) (A) (A) (A) (A)
                 (A) (A) (A) (A) (A) (A) (A) (A) (A) (A) (A) (A)
                 (A) (A) (A) (A) (A) (A) (A) (A) (A) (A) (A) (A)
                 (A) (A) (A) (A) (A) (A) (A) (A) (A) (A) (A) (A)
                 (A) (A) (A) (A) (A) (A) (A) (A) (A) (A) (A) (A)
                 (A) (A) (A) (A) (A) (A) (A) (A) (A) (A) (A) (A)
                 (A) (A) (A) (A) (A) (A) (A) (A) (A) (A) (A) (A)
                 (A) (A) (A) (A) (A) (A) (A) (A) (A) (A) (A) (A)
                 (A) (A) (A) (A) (A) (A) (A) (A) (A) (A) (A) (A)
                 (A) (A) (A) (A) (A) (A) (A) (A) (A) (A) (A) (A)
                 (A) (A) (A) (A) (A) (A) (A) (A) (A) (A) (A) (A)
                 (A) (A) (A) (A) (A) (A) (A) (A) (A) (A) (A) (A)
                 (A) (A) (A) (A) (A) (A) (A) (A) (A) (A) (A) (A)
                 (A) (A) (A) (A) (A) (A) (A)
 The electronic state is 1-A.
 Alpha  occ. eigenvalues --  -19.25671 -19.22066 -19.20695 -14.52353 -14.52127
 Alpha  occ. eigenvalues --  -14.48880 -14.48671 -14.47673 -14.47567 -14.46964
 Alpha  occ. eigenvalues --  -14.46733 -14.45371 -14.44095 -14.44088 -14.42190
 Alpha  occ. eigenvalues --  -14.42076 -14.41109 -14.41043 -14.40979 -14.40310
 Alpha  occ. eigenvalues --  -10.45230 -10.41314 -10.40158 -10.39594 -10.38323
 Alpha  occ. eigenvalues --  -10.37886 -10.37284 -10.37020 -10.35573 -10.35392
 Alpha  occ. eigenvalues --  -10.35100 -10.34458 -10.33870 -10.33866 -10.33515
 Alpha  occ. eigenvalues --  -10.33276 -10.33110 -10.32499 -10.31191 -10.30960
 Alpha  occ. eigenvalues --  -10.30875 -10.28395 -10.28217  -1.19242  -1.15094
 Alpha  occ. eigenvalues --   -1.13274  -1.13111  -1.11199  -1.10685  -1.09112
 Alpha  occ. eigenvalues --   -1.09003  -1.08635  -1.05025  -1.04524  -1.02377
 Alpha  occ. eigenvalues --   -1.00831  -1.00394  -0.99808  -0.98618  -0.96880
 Alpha  occ. eigenvalues --   -0.96684  -0.96554  -0.92695  -0.90787  -0.87476
 Alpha  occ. eigenvalues --   -0.85793  -0.84210  -0.83903  -0.83493  -0.82587
 Alpha  occ. eigenvalues --   -0.82321  -0.78615  -0.76830  -0.74732  -0.74614
 Alpha  occ. eigenvalues --   -0.73706  -0.73218  -0.72846  -0.71012  -0.70171
 Alpha  occ. eigenvalues --   -0.67469  -0.66591  -0.66320  -0.66242  -0.64432
 Alpha  occ. eigenvalues --   -0.64003  -0.63749  -0.62703  -0.62661  -0.61855
 Alpha  occ. eigenvalues --   -0.60816  -0.60389  -0.60213  -0.59293  -0.59199
 Alpha  occ. eigenvalues --   -0.58792  -0.58441  -0.56955  -0.56554  -0.56240
 Alpha  occ. eigenvalues --   -0.55889  -0.55458  -0.55107  -0.54387  -0.54215
 Alpha  occ. eigenvalues --   -0.53707  -0.53637  -0.53424  -0.53276  -0.53022
 Alpha  occ. eigenvalues --   -0.52634  -0.52324  -0.51812  -0.50775  -0.50274
 Alpha  occ. eigenvalues --   -0.50240  -0.49788  -0.49435  -0.49136  -0.48920
 Alpha  occ. eigenvalues --   -0.48827  -0.48477  -0.48066  -0.47660  -0.47403
 Alpha  occ. eigenvalues --   -0.46925  -0.45995  -0.44862  -0.44766  -0.43202
 Alpha  occ. eigenvalues --   -0.41028  -0.40544  -0.39289  -0.37833  -0.37373
 Alpha  occ. eigenvalues --   -0.37336  -0.37270  -0.37062  -0.36166  -0.34438
 Alpha  occ. eigenvalues --   -0.34281  -0.33979  -0.33413  -0.33349  -0.33276
 Alpha  occ. eigenvalues --   -0.32728  -0.32409  -0.32066  -0.31930  -0.30859
 Alpha  occ. eigenvalues --   -0.30442  -0.29286  -0.25883  -0.25345
 Alpha virt. eigenvalues --    0.03390   0.04144   0.07323   0.07842   0.08372
 Alpha virt. eigenvalues --    0.09173   0.09656   0.10518   0.11035   0.12157
 Alpha virt. eigenvalues --    0.13097   0.13532   0.14391   0.14435   0.14966
 Alpha virt. eigenvalues --    0.15329   0.16170   0.17254   0.18036   0.18277
 Alpha virt. eigenvalues --    0.18616   0.19112   0.19528   0.20147   0.20316
 Alpha virt. eigenvalues --    0.20488   0.20996   0.21318   0.21645   0.22185
 Alpha virt. eigenvalues --    0.22487   0.22679   0.22875   0.23475   0.23871
 Alpha virt. eigenvalues --    0.24001   0.24103   0.24542   0.25457   0.25887
 Alpha virt. eigenvalues --    0.26259   0.26477   0.27389   0.27619   0.27858
 Alpha virt. eigenvalues --    0.28766   0.29001   0.29552   0.30111   0.30549
 Alpha virt. eigenvalues --    0.31074   0.31518   0.32422   0.32932   0.33327
 Alpha virt. eigenvalues --    0.33852   0.34187   0.35381   0.36158   0.36291
 Alpha virt. eigenvalues --    0.36545   0.37011   0.37770   0.38666   0.39096
 Alpha virt. eigenvalues --    0.39381   0.40039   0.40983   0.41101   0.41983
 Alpha virt. eigenvalues --    0.42240   0.42402   0.43471   0.43640   0.43794
 Alpha virt. eigenvalues --    0.44649   0.45463   0.46035   0.46345   0.46774
 Alpha virt. eigenvalues --    0.47062   0.47312   0.48124   0.48609   0.49100
 Alpha virt. eigenvalues --    0.49817   0.50380   0.50514   0.51084   0.51369
 Alpha virt. eigenvalues --    0.51796   0.51895   0.52684   0.52955   0.53250
 Alpha virt. eigenvalues --    0.53547   0.53879   0.54516   0.54960   0.55481
 Alpha virt. eigenvalues --    0.55764   0.55893   0.56215   0.56908   0.57425
 Alpha virt. eigenvalues --    0.57728   0.58151   0.58508   0.59214   0.59835
 Alpha virt. eigenvalues --    0.59838   0.60230   0.61101   0.61215   0.61533
 Alpha virt. eigenvalues --    0.61763   0.62282   0.62390   0.62757   0.63002
 Alpha virt. eigenvalues --    0.63760   0.64188   0.64750   0.65112   0.65462
 Alpha virt. eigenvalues --    0.65658   0.66026   0.66742   0.67451   0.67769
 Alpha virt. eigenvalues --    0.68021   0.68441   0.68806   0.68902   0.69719
 Alpha virt. eigenvalues --    0.69963   0.70614   0.71227   0.71853   0.72151
 Alpha virt. eigenvalues --    0.72275   0.72725   0.73321   0.73422   0.73626
 Alpha virt. eigenvalues --    0.74191   0.74474   0.74931   0.75335   0.75772
 Alpha virt. eigenvalues --    0.75871   0.76046   0.76540   0.76684   0.77134
 Alpha virt. eigenvalues --    0.77550   0.77903   0.78426   0.78939   0.79427
 Alpha virt. eigenvalues --    0.79558   0.80083   0.80560   0.80773   0.81108
 Alpha virt. eigenvalues --    0.81356   0.81912   0.82474   0.82889   0.83274
 Alpha virt. eigenvalues --    0.83478   0.83794   0.84189   0.84581   0.85145
 Alpha virt. eigenvalues --    0.85376   0.85992   0.86585   0.86898   0.87408
 Alpha virt. eigenvalues --    0.88034   0.88672   0.88976   0.89401   0.89856
 Alpha virt. eigenvalues --    0.90892   0.91306   0.91514   0.91873   0.92309
 Alpha virt. eigenvalues --    0.92470   0.92909   0.93319   0.93479   0.93877
 Alpha virt. eigenvalues --    0.94360   0.95606   0.95814   0.96496   0.96732
 Alpha virt. eigenvalues --    0.96831   0.97752   0.98357   0.98631   0.98935
 Alpha virt. eigenvalues --    0.99432   0.99563   0.99887   1.00505   1.00815
 Alpha virt. eigenvalues --    1.01021   1.01407   1.02088   1.02556   1.03284
 Alpha virt. eigenvalues --    1.03573   1.04028   1.04504   1.05126   1.05529
 Alpha virt. eigenvalues --    1.06602   1.06982   1.07043   1.07388   1.07957
 Alpha virt. eigenvalues --    1.08453   1.08591   1.09053   1.10415   1.10753
 Alpha virt. eigenvalues --    1.11299   1.11650   1.11888   1.12260   1.13623
 Alpha virt. eigenvalues --    1.13945   1.14204   1.15031   1.15449   1.15520
 Alpha virt. eigenvalues --    1.15831   1.16636   1.16947   1.17904   1.18082
 Alpha virt. eigenvalues --    1.18403   1.18717   1.19024   1.19160   1.19777
 Alpha virt. eigenvalues --    1.19991   1.20292   1.20991   1.21238   1.22082
 Alpha virt. eigenvalues --    1.22249   1.22582   1.23032   1.23261   1.23554
 Alpha virt. eigenvalues --    1.23853   1.24043   1.24318   1.24865   1.25882
 Alpha virt. eigenvalues --    1.26238   1.26497   1.26804   1.27700   1.28127
 Alpha virt. eigenvalues --    1.28285   1.28843   1.29800   1.30351   1.30635
 Alpha virt. eigenvalues --    1.31015   1.32031   1.32922   1.33967   1.34225
 Alpha virt. eigenvalues --    1.34735   1.35330   1.35743   1.36774   1.37057
 Alpha virt. eigenvalues --    1.37483   1.37897   1.38596   1.39954   1.40291
 Alpha virt. eigenvalues --    1.40883   1.41426   1.42192   1.42383   1.44009
 Alpha virt. eigenvalues --    1.44252   1.46068   1.47155   1.47524   1.47954
 Alpha virt. eigenvalues --    1.48931   1.49404   1.49752   1.50251   1.50555
 Alpha virt. eigenvalues --    1.51199   1.52822   1.53307   1.53530   1.54190
 Alpha virt. eigenvalues --    1.54819   1.55936   1.56131   1.56137   1.57246
 Alpha virt. eigenvalues --    1.57963   1.59309   1.59721   1.60089   1.60675
 Alpha virt. eigenvalues --    1.61685   1.62519   1.62914   1.63208   1.63745
 Alpha virt. eigenvalues --    1.64051   1.64185   1.64482   1.65041   1.66508
 Alpha virt. eigenvalues --    1.66654   1.67864   1.68211   1.68411   1.69411
 Alpha virt. eigenvalues --    1.70268   1.70516   1.71122   1.71399   1.71842
 Alpha virt. eigenvalues --    1.72242   1.72453   1.72698   1.73572   1.73841
 Alpha virt. eigenvalues --    1.74079   1.74927   1.75092   1.75566   1.75731
 Alpha virt. eigenvalues --    1.76181   1.76590   1.76786   1.76860   1.77472
 Alpha virt. eigenvalues --    1.77938   1.78314   1.78528   1.78852   1.79122
 Alpha virt. eigenvalues --    1.79491   1.79826   1.80194   1.80753   1.81116
 Alpha virt. eigenvalues --    1.81357   1.81771   1.81971   1.82400   1.82599
 Alpha virt. eigenvalues --    1.83077   1.83350   1.83524   1.84243   1.84593
 Alpha virt. eigenvalues --    1.84695   1.85676   1.85872   1.86797   1.87302
 Alpha virt. eigenvalues --    1.88200   1.88325   1.88848   1.89273   1.89650
 Alpha virt. eigenvalues --    1.90012   1.90234   1.90800   1.91269   1.91862
 Alpha virt. eigenvalues --    1.92073   1.92944   1.93496   1.93643   1.94837
 Alpha virt. eigenvalues --    1.95088   1.95830   1.96867   1.97038   1.97484
 Alpha virt. eigenvalues --    1.98909   1.99313   1.99719   2.00557   2.01263
 Alpha virt. eigenvalues --    2.02040   2.03000   2.03501   2.03752   2.04875
 Alpha virt. eigenvalues --    2.05077   2.05556   2.06550   2.07328   2.07655
 Alpha virt. eigenvalues --    2.08545   2.09103   2.09454   2.10737   2.10861
 Alpha virt. eigenvalues --    2.11183   2.11657   2.12122   2.13379   2.14105
 Alpha virt. eigenvalues --    2.14852   2.15363   2.17302   2.17507   2.18453
 Alpha virt. eigenvalues --    2.18823   2.19440   2.19933   2.21105   2.21368
 Alpha virt. eigenvalues --    2.21976   2.22512   2.22760   2.23221   2.24444
 Alpha virt. eigenvalues --    2.24670   2.25076   2.25529   2.26349   2.26938
 Alpha virt. eigenvalues --    2.27164   2.28173   2.28862   2.29474   2.29820
 Alpha virt. eigenvalues --    2.30369   2.30893   2.31231   2.31405   2.32212
 Alpha virt. eigenvalues --    2.32771   2.33126   2.33759   2.33962   2.34374
 Alpha virt. eigenvalues --    2.34561   2.35501   2.35945   2.36543   2.37036
 Alpha virt. eigenvalues --    2.38529   2.39055   2.40272   2.40683   2.41299
 Alpha virt. eigenvalues --    2.41876   2.42306   2.43018   2.43788   2.44228
 Alpha virt. eigenvalues --    2.44880   2.45099   2.45813   2.46827   2.46884
 Alpha virt. eigenvalues --    2.47454   2.48955   2.50196   2.50556   2.51619
 Alpha virt. eigenvalues --    2.52483   2.53066   2.54775   2.55574   2.55886
 Alpha virt. eigenvalues --    2.56854   2.57755   2.58241   2.59143   2.60034
 Alpha virt. eigenvalues --    2.61133   2.61514   2.62469   2.62543   2.64154
 Alpha virt. eigenvalues --    2.64314   2.65230   2.65627   2.65780   2.66259
 Alpha virt. eigenvalues --    2.67653   2.68063   2.68233   2.68825   2.69353
 Alpha virt. eigenvalues --    2.69888   2.70608   2.71080   2.71984   2.72309
 Alpha virt. eigenvalues --    2.73178   2.74900   2.75652   2.76002   2.76380
 Alpha virt. eigenvalues --    2.77144   2.77544   2.79173   2.79365   2.79684
 Alpha virt. eigenvalues --    2.79944   2.80266   2.80552   2.81289   2.81621
 Alpha virt. eigenvalues --    2.82150   2.82395   2.82927   2.83348   2.84129
 Alpha virt. eigenvalues --    2.84993   2.85050   2.86208   2.86455   2.86712
 Alpha virt. eigenvalues --    2.87189   2.88300   2.89255   2.91774   2.93727
 Alpha virt. eigenvalues --    2.94369   2.96197   2.96787   2.98505   2.99582
 Alpha virt. eigenvalues --    3.00202   3.01264   3.02060   3.04388   3.05550
 Alpha virt. eigenvalues --    3.07053   3.09741   3.10634   3.12894   3.15027
 Alpha virt. eigenvalues --    3.15494   3.15667   3.16427   3.17338   3.20684
 Alpha virt. eigenvalues --    3.21858   3.22814   3.23825   3.24507   3.26324
 Alpha virt. eigenvalues --    3.45046   3.47345   3.47768   3.49709   3.50494
 Alpha virt. eigenvalues --    3.53245   3.54685   3.56026   3.57611   3.59917
 Alpha virt. eigenvalues --    3.62735   3.70826   3.75166
          Condensed to atoms (all electrons):
 Mulliken charges:
               1
     1  N   -0.308460
     2  C    0.178941
     3  C    0.064370
     4  N   -0.250098
     5  C    0.134406
     6  H    0.025182
     7  N   -0.294661
     8  C    0.135279
     9  H    0.010926
    10  N   -0.289149
    11  C    0.233169
    12  C    0.091639
    13  N   -0.045593
    14  H    0.113894
    15  H    0.084660
    16  H    0.026907
    17  H    0.033052
    18  H    0.019075
    19  N   -0.305495
    20  C    0.259553
    21  C    0.182761
    22  N   -0.122714
    23  H    0.117698
    24  H    0.118315
    25  N   -0.310697
    26  C    0.246370
    27  N   -0.146609
    28  H    0.119031
    29  C    0.190940
    30  O   -0.324028
    31  C   -0.019285
    32  N   -0.217982
    33  C    0.121324
    34  H    0.018868
    35  H    0.026266
    36  H    0.030191
    37  H    0.023052
    38  H    0.052705
    39  H    0.060930
    40  H    0.074545
    41  H    0.020754
    42  C   -0.105454
    43  O   -0.274912
    44  C    0.156330
    45  H    0.130266
    46  N   -0.106403
    47  O   -0.345422
    48  C    0.336014
    49  H    0.045334
    50  C    0.173460
    51  C    0.042718
    52  N   -0.278153
    53  H    0.034464
    54  H    0.041611
    55  H    0.023095
    56  H    0.127416
    57  H    0.115922
    58  N   -0.047493
    59  C    0.078671
    60  C    0.229567
    61  N   -0.267418
    62  H    0.031440
    63  C    0.161768
    64  N   -0.299628
    65  H    0.035374
    66  C    0.117679
    67  N   -0.255929
    68  C    0.041755
    69  C    0.182292
    70  N   -0.304393
 Sum of Mulliken charges =  -0.00000
 Mulliken charges with hydrogens summed into heavy atoms:
               1
     1  N   -0.308460
     2  C    0.257974
     3  C    0.064370
     4  N   -0.250098
     5  C    0.159588
     7  N   -0.294661
     8  C    0.146205
    10  N   -0.289149
    11  C    0.233169
    12  C    0.091639
    13  N    0.152961
    19  N   -0.305495
    20  C    0.259553
    21  C    0.262270
    22  N    0.113299
    25  N   -0.310697
    26  C    0.246370
    27  N   -0.027579
    29  C    0.190940
    30  O   -0.324028
    31  C   -0.019285
    32  N   -0.217982
    33  C    0.140192
    42  C   -0.084701
    43  O   -0.274912
    44  C    0.156330
    46  N    0.023863
    47  O   -0.345422
    48  C    0.336014
    50  C    0.218795
    51  C    0.230898
    52  N   -0.278153
    58  N    0.195845
    59  C    0.078671
    60  C    0.229567
    61  N   -0.267418
    63  C    0.193208
    64  N   -0.299628
    66  C    0.153052
    67  N   -0.255929
    68  C    0.041755
    69  C    0.281462
    70  N   -0.304393
 Electronic spatial extent (au):  <R**2>=          22192.5549
 Charge=             -0.0000 electrons
 Dipole moment (field-independent basis, Debye):
    X=              6.3102    Y=              6.5225    Z=              3.6627  Tot=              9.7865
 Quadrupole moment (field-independent basis, Debye-Ang):
   XX=           -148.1136   YY=           -223.6747   ZZ=           -257.8291
   XY=              7.4510   XZ=              1.4295   YZ=             -0.1621
 Traceless Quadrupole moment (field-independent basis, Debye-Ang):
   XX=             61.7589   YY=            -13.8022   ZZ=            -47.9567
   XY=              7.4510   XZ=              1.4295   YZ=             -0.1621
 Octapole moment (field-independent basis, Debye-Ang**2):
  XXX=            -90.5331  YYY=             67.8402  ZZZ=             43.6746  XYY=             34.3934
  XXY=             83.7830  XXZ=             32.1135  XZZ=             84.4067  YZZ=             56.9495
  YYZ=             33.7495  XYZ=             50.8263
 Hexadecapole moment (field-independent basis, Debye-Ang**3):
 XXXX=         -15866.4806 YYYY=          -4389.4315 ZZZZ=          -3976.0193 XXXY=            597.4469
 XXXZ=            105.1148 YYYX=           -102.5246 YYYZ=            110.4764 ZZZX=            160.9619
 ZZZY=             13.4549 XXYY=          -3730.1162 XXZZ=          -3807.9848 YYZZ=          -1495.4241
 XXYZ=            143.0496 YYXZ=             25.1198 ZZXY=            135.5094
 N-N= 5.533553878760D+03 E-N=-1.584778184124D+04  KE= 2.037731829981D+03
 No NMR shielding tensors so no spin-rotation constants.
 Leave Link  601 at Sat Jan 20 10:30:23 2018, MaxMem=  4294967296 cpu:              48.3 elap:               1.7
 (Enter /share/apps/g16/l9999.exe)
 1\1\GINC-COMPUTE-0-3\SP\RwB97XD\CC-pVDZ\C23H27N17O3\SATYA\20-Jan-2018\
 0\\#p wb97xd/cc-pvdz sp scf=(maxcycles=20)\\Base pair stacking\\0,1\N,
 0,4.15623,3.56742,-6.0097\C,0,4.44381,4.99663,-6.23918\C,0,3.16937,1.6
 0347,-5.9304\N,0,4.43204,1.42567,-5.38382\C,0,4.97606,2.61599,-5.45346
 \H,0,5.98222,2.85885,-5.11053\N,0,0.97778,1.21666,-6.71161\C,0,0.94647
 ,2.51324,-7.03638\H,0,0.01762,2.85676,-7.4897\N,0,1.88585,3.44482,-6.8
 8597\C,0,2.98487,2.91843,-6.32072\C,0,2.0978,0.71757,-6.14456\N,0,2.13
 098,-0.57646,-5.81965\H,0,2.9393,-0.98869,-5.39788\H,0,1.34942,-1.1776
 4,-5.98667\H,0,5.23399,5.08585,-6.84568\H,0,3.64998,5.43356,-6.66113\H
 ,0,4.64332,5.4429,-5.36681\N,0,0.96484,4.38435,-3.31174\C,0,0.14103,3.
 28883,-3.40786\C,0,0.55181,5.78497,-3.53163\N,0,-2.99497,1.9283,-4.021
 19\H,0,-3.41479,1.02129,-4.03947\H,0,-3.58786,2.70694,-4.22837\N,0,-1.
 17359,3.3077,-3.71686\C,0,-1.69543,2.094,-3.73198\N,0,-0.98587,0.9482,
 -3.4652\H,0,-1.46729,0.06275,-3.49977\C,0,0.36745,0.90512,-3.14502\O,0
 ,0.91309,-0.1826,-2.92168\C,0,0.94188,2.20146,-3.12489\N,0,2.24229,2.6
 0618,-2.85651\C,0,2.20842,3.90545,-2.97884\H,0,3.06511,4.56509,-2.8366
 5\H,0,1.08151,6.17633,-4.28333\H,0,-0.42023,5.81147,-3.76121\H,0,0.711
 36,6.31576,-2.69999\H,0,-4.28194,-4.06059,-4.46335\H,0,-4.46694,-4.088
 48,-2.71131\H,0,-4.28474,-2.54941,-3.55358\H,0,-0.04873,-5.939,-3.1602
 4\C,0,-0.54451,-4.96891,-3.19715\O,0,1.46367,-3.72771,-2.96534\C,0,0.2
 4077,-3.77695,-3.09526\H,0,0.03548,-1.74076,-3.08452\N,0,-0.48474,-2.6
 0412,-3.1532\O,0,-2.3971,-1.39304,-3.33585\C,0,-1.844,-2.47796,-3.2947
 2\H,0,-2.51442,-5.75418,-3.41766\C,0,-1.87233,-4.87817,-3.33591\C,0,-3
 .98696,-3.58731,-3.53866\N,0,-2.53184,-3.67198,-3.38635\H,0,-5.45021,-
 3.06792,-8.4453\H,0,-5.04127,-1.81281,-7.48635\H,0,-5.91019,-3.05411,-
 6.87953\H,0,1.31486,-4.15389,-5.59572\H,0,0.22657,-5.43097,-5.90361\N,
 0,0.3964,-4.44572,-5.86297\C,0,-0.5601,-3.56116,-6.1525\C,0,-2.74816,-
 2.88871,-6.80208\N,0,-2.49152,-1.57168,-6.73905\H,0,-0.93656,-0.31293,
 -6.2938\C,0,-1.22993,-1.35905,-6.37018\N,0,-0.27039,-2.24364,-6.07975\
 H,0,-4.48618,-5.57117,-7.28773\C,0,-3.70445,-4.84445,-7.06477\N,0,-2.4
 8283,-5.1515,-6.70275\C,0,-1.86587,-3.92054,-6.53298\C,0,-5.18385,-2.8
 0162,-7.51894\N,0,-3.93456,-3.49267,-7.14516\\Version=EM64L-G16RevA.03
 \State=1-A\HF=-2048.7496531\RMSD=7.006e-09\Dipole=-3.7367398,-0.451446
 6,-0.8111166\Quadrupole=11.0751195,22.5020519,-33.5771714,29.0299749,-
 3.4805593,6.4179489\PG=C01 [X(C23H27N17O3)]\\@


 DO YOU KNOW THAT THE LETTERS IN "EPISCOPAL", WHEN
 REARRANGED, SPELL "PEPSI COLA"?
 Job cpu time:       0 days  6 hours  1 minutes 46.6 seconds.
 Elapsed time:       0 days  0 hours 11 minutes 39.8 seconds.
 File lengths (MBytes):  RWF=    298 Int=      0 D2E=      0 Chk=     33 Scr=      1
 Normal termination of Gaussian 16 at Sat Jan 20 10:30:23 2018.
