 Entering Gaussian System, Link 0=g16
 Input=str25.-15.0.0.com
 Output=str25.-15.0.0.log
 Initial command:
 /share/apps/g16/l1.exe "/state/partition1/scr/Gau-26921.inp" -scrdir="/state/partition1/scr/"
 Entering Link 1 = /share/apps/g16/l1.exe PID=     26922.
  
 Copyright (c) 1988,1990,1992,1993,1995,1998,2003,2009,2016,
            Gaussian, Inc.  All Rights Reserved.
  
 This is part of the Gaussian(R) 16 program.  It is based on
 the Gaussian(R) 09 system (copyright 2009, Gaussian, Inc.),
 the Gaussian(R) 03 system (copyright 2003, Gaussian, Inc.),
 the Gaussian(R) 98 system (copyright 1998, Gaussian, Inc.),
 the Gaussian(R) 94 system (copyright 1995, Gaussian, Inc.),
 the Gaussian 92(TM) system (copyright 1992, Gaussian, Inc.),
 the Gaussian 90(TM) system (copyright 1990, Gaussian, Inc.),
 the Gaussian 88(TM) system (copyright 1988, Gaussian, Inc.),
 the Gaussian 86(TM) system (copyright 1986, Carnegie Mellon
 University), and the Gaussian 82(TM) system (copyright 1983,
 Carnegie Mellon University). Gaussian is a federally registered
 trademark of Gaussian, Inc.
  
 This software contains proprietary and confidential information,
 including trade secrets, belonging to Gaussian, Inc.
  
 This software is provided under written license and may be
 used, copied, transmitted, or stored only in accord with that
 written license.
  
 The following legend is applicable only to US Government
 contracts under FAR:
  
                    RESTRICTED RIGHTS LEGEND
  
 Use, reproduction and disclosure by the US Government is
 subject to restrictions as set forth in subparagraphs (a)
 and (c) of the Commercial Computer Software - Restricted
 Rights clause in FAR 52.227-19.
  
 Gaussian, Inc.
 340 Quinnipiac St., Bldg. 40, Wallingford CT 06492
  
  
 ---------------------------------------------------------------
 Warning -- This program may not be used in any manner that
 competes with the business of Gaussian, Inc. or will provide
 assistance to any competitor of Gaussian, Inc.  The licensee
 of this program is prohibited from giving any competitor of
 Gaussian, Inc. access to this program.  By using this program,
 the user acknowledges that Gaussian, Inc. is engaged in the
 business of creating and licensing software in the field of
 computational chemistry and represents and warrants to the
 licensee that it is not a competitor of Gaussian, Inc. and that
 it will not use this program in any manner prohibited above.
 ---------------------------------------------------------------
  

 Cite this work as:
 Gaussian 16, Revision A.03,
 M. J. Frisch, G. W. Trucks, H. B. Schlegel, G. E. Scuseria, 
 M. A. Robb, J. R. Cheeseman, G. Scalmani, V. Barone, 
 G. A. Petersson, H. Nakatsuji, X. Li, M. Caricato, A. V. Marenich, 
 J. Bloino, B. G. Janesko, R. Gomperts, B. Mennucci, H. P. Hratchian, 
 J. V. Ortiz, A. F. Izmaylov, J. L. Sonnenberg, D. Williams-Young, 
 F. Ding, F. Lipparini, F. Egidi, J. Goings, B. Peng, A. Petrone, 
 T. Henderson, D. Ranasinghe, V. G. Zakrzewski, J. Gao, N. Rega, 
 G. Zheng, W. Liang, M. Hada, M. Ehara, K. Toyota, R. Fukuda, 
 J. Hasegawa, M. Ishida, T. Nakajima, Y. Honda, O. Kitao, H. Nakai, 
 T. Vreven, K. Throssell, J. A. Montgomery, Jr., J. E. Peralta, 
 F. Ogliaro, M. J. Bearpark, J. J. Heyd, E. N. Brothers, K. N. Kudin, 
 V. N. Staroverov, T. A. Keith, R. Kobayashi, J. Normand, 
 K. Raghavachari, A. P. Rendell, J. C. Burant, S. S. Iyengar, 
 J. Tomasi, M. Cossi, J. M. Millam, M. Klene, C. Adamo, R. Cammi, 
 J. W. Ochterski, R. L. Martin, K. Morokuma, O. Farkas, 
 J. B. Foresman, and D. J. Fox, Gaussian, Inc., Wallingford CT, 2016.
 
 ******************************************
 Gaussian 16:  EM64L-G16RevA.03 25-Dec-2016
                20-Jan-2018 
 ******************************************
 %nprocshared=32
 Will use up to   32 processors via shared memory.
 %mem=32GB
 %chk=allatoms_t.chk
 ---------------------------------------
 #p wb97xd/cc-pvdz sp scf=(maxcycles=20)
 ---------------------------------------
 1/38=1,172=1/1;
 2/12=2,17=6,18=5,40=1/2;
 3/5=16,11=2,25=1,30=1,74=-58/1,2,3;
 4//1;
 5/5=2,7=20,38=5/2;
 6/7=2,8=2,9=2,10=2,28=1/1;
 99/5=1,9=1/99;
 Leave Link    1 at Sat Jan 20 13:41:02 2018, MaxMem=  4294967296 cpu:               2.7 elap:               0.1
 (Enter /share/apps/g16/l101.exe)
 ------------------
 Base pair stacking
 ------------------
 Symbolic Z-matrix:
 Charge =  0 Multiplicity = 1
 N                     1.8433    5.07424  -6.78603 
 C                     2.09727   6.52458  -6.68598 
 C                     0.90306   3.08845  -6.68648 
 N                     2.16897   2.89219  -7.2191 
 C                     2.68477   4.09641  -7.25776 
 H                     3.68451   4.3312   -7.62426 
 N                    -1.27788   2.72169  -5.86676 
 C                    -1.33947   4.04101  -5.65893 
 H                    -2.27567   4.40177  -5.23509 
 N                    -0.42254   4.97719  -5.89496 
 C                     0.68797   4.42834  -6.41452 
 C                    -0.14702   2.20035  -6.39062 
 N                    -0.08362   0.8836   -6.59881 
 H                     0.73375   0.45441  -6.98472 
 H                    -0.85055   0.28158  -6.37626 
 H                     2.28571   6.8949   -7.59567 
 H                     1.29381   6.97872  -6.30215 
 H                     2.88529   6.68691  -6.09212 
 N                     0.35562   4.87769  -3.15889 
 C                    -0.45965   3.78141  -3.01209 
 C                    -0.08167   6.28519  -3.067 
 N                    -3.60428   2.4284   -2.42688 
 H                    -4.01464   1.51971  -2.35535 
 H                    -4.21395   3.21232  -2.30653 
 N                    -1.78651   3.80562  -2.76124 
 C                    -2.29534   2.5895   -2.67312 
 N                    -1.56255   1.43659  -2.81917 
 H                    -2.03539   0.54979  -2.73568 
 C                    -0.19628   1.38792  -3.07762 
 O                     0.37024   0.29396  -3.19187 
 C                     0.3644    2.68678  -3.17499 
 N                     1.67072   3.08779  -3.41915 
 C                     1.61752   4.39202  -3.4005 
 H                     2.47236   5.05068  -3.55767 
 H                     0.10786   6.75188  -3.93018 
 H                    -1.06294   6.31568  -2.8814 
 H                     0.41083   6.74131  -2.32658 
 H                    -5.08501  -3.51718  -2.84652 
 H                    -4.54811  -3.70642  -1.17902 
 H                    -4.68904  -2.09465  -1.88164 
 H                    -0.72608  -5.43294  -3.5365 
 C                    -1.17424  -4.47211  -3.28316 
 O                     0.78226  -3.22275  -3.77132 
 C                    -0.38987  -3.28097  -3.40052 
 H                    -0.53082  -1.25789  -3.12554 
 N                    -1.05245  -2.12028  -3.05546 
 O                    -2.85025  -0.93056  -2.34158 
 C                    -2.35035  -2.00513  -2.6245 
 H                    -3.08166  -5.26783  -2.75932 
 C                    -2.44301  -4.39193  -2.86554 
 C                    -4.43229  -3.1244   -2.08118 
 N                    -3.04148  -3.19759  -2.5373 
 H                    -7.73483  -1.49381  -4.07243 
 H                    -6.62479  -0.5748   -3.30736 
 H                    -7.02851  -2.03716  -2.70521 
 H                    -1.02321  -2.64531  -7.02094 
 H                    -2.20149  -3.8729   -6.89945 
 N                    -1.91494  -2.94025  -6.67748 
 C                    -2.68837  -2.1268   -5.95549 
 C                    -4.63412  -1.53988  -4.71802 
 N                    -4.22355  -0.29252  -4.43526 
 H                    -2.61393   0.92784  -4.78234 
 C                    -3.02325  -0.06486  -4.96473 
 N                    -2.247    -0.87828  -5.68818 
 H                    -6.59985  -4.1066   -4.72108 
 C                    -5.77837  -3.40454  -4.86678 
 N                    -4.68311  -3.66774  -5.53671 
 C                    -3.9489   -2.49378  -5.45018 
 C                    -6.88648  -1.51021  -3.54326 
 N                    -5.81565  -2.1349   -4.34395 
 
 ITRead=  0  0  0  0  0  0  0  0  0  0  0  0  0  0  0  0  0  0  0  0
 ITRead=  0  0  0  0  0  0  0  0  0  0  0  0  0  0  0  0  0  0  0  0
 ITRead=  0  0  0  0  0  0  0  0  0  0  0  0  0  0  0  0  0  0  0  0
 ITRead=  0  0  0  0  0  0  0  0  0  0
 MicOpt= -1 -1 -1 -1 -1 -1 -1 -1 -1 -1 -1 -1 -1 -1 -1 -1 -1 -1 -1 -1
 MicOpt= -1 -1 -1 -1 -1 -1 -1 -1 -1 -1 -1 -1 -1 -1 -1 -1 -1 -1 -1 -1
 MicOpt= -1 -1 -1 -1 -1 -1 -1 -1 -1 -1 -1 -1 -1 -1 -1 -1 -1 -1 -1 -1
 MicOpt= -1 -1 -1 -1 -1 -1 -1 -1 -1 -1
 NAtoms=     70 NQM=       70 NQMF=       0 NMMI=      0 NMMIF=      0
                NMic=       0 NMicF=      0.
                    Isotopes and Nuclear Properties:
 (Nuclear quadrupole moments (NQMom) in fm**2, nuclear magnetic moments (NMagM)
  in nuclear magnetons)

  Atom         1           2           3           4           5           6           7           8           9          10
 IAtWgt=          14          12          12          14          12           1          14          12           1          14
 AtmWgt=  14.0030740  12.0000000  12.0000000  14.0030740  12.0000000   1.0078250  14.0030740  12.0000000   1.0078250  14.0030740
 NucSpn=           2           0           0           2           0           1           2           0           1           2
 AtZEff=  -0.0000000  -0.0000000  -0.0000000  -0.0000000  -0.0000000  -0.0000000  -0.0000000  -0.0000000  -0.0000000  -0.0000000
 NQMom=    2.0440000   0.0000000   0.0000000   2.0440000   0.0000000   0.0000000   2.0440000   0.0000000   0.0000000   2.0440000
 NMagM=    0.4037610   0.0000000   0.0000000   0.4037610   0.0000000   2.7928460   0.4037610   0.0000000   2.7928460   0.4037610
 AtZNuc=   7.0000000   6.0000000   6.0000000   7.0000000   6.0000000   1.0000000   7.0000000   6.0000000   1.0000000   7.0000000

  Atom        11          12          13          14          15          16          17          18          19          20
 IAtWgt=          12          12          14           1           1           1           1           1          14          12
 AtmWgt=  12.0000000  12.0000000  14.0030740   1.0078250   1.0078250   1.0078250   1.0078250   1.0078250  14.0030740  12.0000000
 NucSpn=           0           0           2           1           1           1           1           1           2           0
 AtZEff=  -0.0000000  -0.0000000  -0.0000000  -0.0000000  -0.0000000  -0.0000000  -0.0000000  -0.0000000  -0.0000000  -0.0000000
 NQMom=    0.0000000   0.0000000   2.0440000   0.0000000   0.0000000   0.0000000   0.0000000   0.0000000   2.0440000   0.0000000
 NMagM=    0.0000000   0.0000000   0.4037610   2.7928460   2.7928460   2.7928460   2.7928460   2.7928460   0.4037610   0.0000000
 AtZNuc=   6.0000000   6.0000000   7.0000000   1.0000000   1.0000000   1.0000000   1.0000000   1.0000000   7.0000000   6.0000000

  Atom        21          22          23          24          25          26          27          28          29          30
 IAtWgt=          12          14           1           1          14          12          14           1          12          16
 AtmWgt=  12.0000000  14.0030740   1.0078250   1.0078250  14.0030740  12.0000000  14.0030740   1.0078250  12.0000000  15.9949146
 NucSpn=           0           2           1           1           2           0           2           1           0           0
 AtZEff=  -0.0000000  -0.0000000  -0.0000000  -0.0000000  -0.0000000  -0.0000000  -0.0000000  -0.0000000  -0.0000000  -0.0000000
 NQMom=    0.0000000   2.0440000   0.0000000   0.0000000   2.0440000   0.0000000   2.0440000   0.0000000   0.0000000   0.0000000
 NMagM=    0.0000000   0.4037610   2.7928460   2.7928460   0.4037610   0.0000000   0.4037610   2.7928460   0.0000000   0.0000000
 AtZNuc=   6.0000000   7.0000000   1.0000000   1.0000000   7.0000000   6.0000000   7.0000000   1.0000000   6.0000000   8.0000000

  Atom        31          32          33          34          35          36          37          38          39          40
 IAtWgt=          12          14          12           1           1           1           1           1           1           1
 AtmWgt=  12.0000000  14.0030740  12.0000000   1.0078250   1.0078250   1.0078250   1.0078250   1.0078250   1.0078250   1.0078250
 NucSpn=           0           2           0           1           1           1           1           1           1           1
 AtZEff=  -0.0000000  -0.0000000  -0.0000000  -0.0000000  -0.0000000  -0.0000000  -0.0000000  -0.0000000  -0.0000000  -0.0000000
 NQMom=    0.0000000   2.0440000   0.0000000   0.0000000   0.0000000   0.0000000   0.0000000   0.0000000   0.0000000   0.0000000
 NMagM=    0.0000000   0.4037610   0.0000000   2.7928460   2.7928460   2.7928460   2.7928460   2.7928460   2.7928460   2.7928460
 AtZNuc=   6.0000000   7.0000000   6.0000000   1.0000000   1.0000000   1.0000000   1.0000000   1.0000000   1.0000000   1.0000000

  Atom        41          42          43          44          45          46          47          48          49          50
 IAtWgt=           1          12          16          12           1          14          16          12           1          12
 AtmWgt=   1.0078250  12.0000000  15.9949146  12.0000000   1.0078250  14.0030740  15.9949146  12.0000000   1.0078250  12.0000000
 NucSpn=           1           0           0           0           1           2           0           0           1           0
 AtZEff=  -0.0000000  -0.0000000  -0.0000000  -0.0000000  -0.0000000  -0.0000000  -0.0000000  -0.0000000  -0.0000000  -0.0000000
 NQMom=    0.0000000   0.0000000   0.0000000   0.0000000   0.0000000   2.0440000   0.0000000   0.0000000   0.0000000   0.0000000
 NMagM=    2.7928460   0.0000000   0.0000000   0.0000000   2.7928460   0.4037610   0.0000000   0.0000000   2.7928460   0.0000000
 AtZNuc=   1.0000000   6.0000000   8.0000000   6.0000000   1.0000000   7.0000000   8.0000000   6.0000000   1.0000000   6.0000000

  Atom        51          52          53          54          55          56          57          58          59          60
 IAtWgt=          12          14           1           1           1           1           1          14          12          12
 AtmWgt=  12.0000000  14.0030740   1.0078250   1.0078250   1.0078250   1.0078250   1.0078250  14.0030740  12.0000000  12.0000000
 NucSpn=           0           2           1           1           1           1           1           2           0           0
 AtZEff=  -0.0000000  -0.0000000  -0.0000000  -0.0000000  -0.0000000  -0.0000000  -0.0000000  -0.0000000  -0.0000000  -0.0000000
 NQMom=    0.0000000   2.0440000   0.0000000   0.0000000   0.0000000   0.0000000   0.0000000   2.0440000   0.0000000   0.0000000
 NMagM=    0.0000000   0.4037610   2.7928460   2.7928460   2.7928460   2.7928460   2.7928460   0.4037610   0.0000000   0.0000000
 AtZNuc=   6.0000000   7.0000000   1.0000000   1.0000000   1.0000000   1.0000000   1.0000000   7.0000000   6.0000000   6.0000000

  Atom        61          62          63          64          65          66          67          68          69          70
 IAtWgt=          14           1          12          14           1          12          14          12          12          14
 AtmWgt=  14.0030740   1.0078250  12.0000000  14.0030740   1.0078250  12.0000000  14.0030740  12.0000000  12.0000000  14.0030740
 NucSpn=           2           1           0           2           1           0           2           0           0           2
 AtZEff=  -0.0000000  -0.0000000  -0.0000000  -0.0000000  -0.0000000  -0.0000000  -0.0000000  -0.0000000  -0.0000000  -0.0000000
 NQMom=    2.0440000   0.0000000   0.0000000   2.0440000   0.0000000   0.0000000   2.0440000   0.0000000   0.0000000   2.0440000
 NMagM=    0.4037610   2.7928460   0.0000000   0.4037610   2.7928460   0.0000000   0.4037610   0.0000000   0.0000000   0.4037610
 AtZNuc=   7.0000000   1.0000000   6.0000000   7.0000000   1.0000000   6.0000000   7.0000000   6.0000000   6.0000000   7.0000000
 Leave Link  101 at Sat Jan 20 13:41:02 2018, MaxMem=  4294967296 cpu:               7.7 elap:               0.3
 (Enter /share/apps/g16/l202.exe)
 Stoichiometry    C23H27N17O3
 Framework group  C1[X(C23H27N17O3)]
 Deg. of freedom   204
 Full point group                 C1      NOp   1
 Largest Abelian subgroup         C1      NOp   1
 Largest concise Abelian subgroup C1      NOp   1
                         Standard orientation:                         
 ---------------------------------------------------------------------
 Center     Atomic      Atomic             Coordinates (Angstroms)
 Number     Number       Type             X           Y           Z
 ---------------------------------------------------------------------
      1          7           0        5.763579   -1.226064   -1.039666
      2          6           0        7.097276   -0.594914   -1.069678
      3          6           0        3.591551   -1.565287   -1.107081
      4          7           0        4.170264   -2.802690   -0.864893
      5          6           0        5.455672   -2.548801   -0.833970
      6          1           0        6.231289   -3.295936   -0.663275
      7          7           0        2.018407    0.150444   -1.487129
      8          6           0        3.060771    0.983827   -1.568015
      9          1           0        2.809017    2.026225   -1.758504
     10          7           0        4.361308    0.724098   -1.449495
     11          6           0        4.561105   -0.583769   -1.217168
     12          6           0        2.252570   -1.159211   -1.252524
     13          7           0        1.213362   -1.992678   -1.171438
     14          1           0        1.339806   -2.970194   -0.999103
     15          1           0        0.273527   -1.668589   -1.280127
     16          1           0        7.645963   -1.006374   -1.797569
     17          1           0        6.999345    0.385011   -1.240775
     18          1           0        7.554063   -0.734127   -0.191065
     19          7           0        4.264522    1.575881    1.264655
     20          6           0        2.896539    1.637228    1.151054
     21          6           0        5.202300    2.648757    0.877055
     22          7           0        0.028659    3.372453    0.242175
     23          1           0       -0.958846    3.217334    0.243409
     24          1           0        0.349017    4.254122   -0.105308
     25          7           0        2.184937    2.679539    0.670140
     26          6           0        0.885599    2.440625    0.686314
     27          7           0        0.324073    1.271106    1.138451
     28          1           0       -0.679561    1.175888    1.113653
     29          6           0        1.036923    0.185467    1.637541
     30          8           0        0.433062   -0.824299    2.020259
     31          6           0        2.434167    0.427265    1.626461
     32          7           0        3.490620   -0.377498    2.030389
     33          6           0        4.553753    0.343493    1.797766
     34          1           0        5.576994    0.023367    1.997222
     35          1           0        5.825238    2.310764    0.172421
     36          1           0        4.686581    3.426152    0.519341
     37          1           0        5.728543    2.938404    1.675802
     38          1           0       -5.667017    1.077855    0.129584
     39          1           0       -5.801114    1.487967    1.837933
     40          1           0       -4.415190    2.050538    0.903016
     41          1           0       -4.889843   -3.226821    2.132642
     42          6           0       -4.357131   -2.293428    1.950384
     43          8           0       -2.211976   -3.226895    2.342865
     44          6           0       -2.930260   -2.269347    2.056616
     45          1           0       -1.349466   -0.982769    1.871844
     46          7           0       -2.356067   -1.039316    1.806402
     47          8           0       -2.407393    1.167400    1.272630
     48          6           0       -3.003915    0.124617    1.476127
     49          1           0       -6.101668   -1.139696    1.536472
     50          6           0       -5.017036   -1.174301    1.629926
     51          6           0       -5.113990    1.239226    1.042921
     52          7           0       -4.378536    0.020937    1.393115
     53          1           0       -5.166689    3.279154   -2.613113
     54          1           0       -3.933306    3.403088   -1.552212
     55          1           0       -5.463131    3.234221   -1.008896
     56          1           0       -2.172390   -3.403944   -1.414831
     57          1           0       -3.836315   -3.177954   -1.715433
     58          7           0       -2.938470   -2.773146   -1.538730
     59          6           0       -2.771280   -1.450764   -1.471518
     60          6           0       -3.485836    0.817793   -1.540850
     61          7           0       -2.268579    1.333313   -1.302200
     62          1           0       -0.350676    0.693515   -0.966155
     63          6           0       -1.369115    0.361459   -1.163088
     64          7           0       -1.534583   -0.963581   -1.230069
     65          1           0       -6.665219    0.818710   -2.127088
     66          6           0       -5.624774    0.549642   -1.942636
     67          7           0       -5.170303   -0.678621   -1.892638
     68          6           0       -3.815352   -0.522875   -1.638505
     69          6           0       -4.818336    2.972733   -1.727255
     70          7           0       -4.659724    1.505512   -1.738384
 ---------------------------------------------------------------------
 Rotational constants (GHZ):           0.1689495           0.0541916           0.0517530
 Leave Link  202 at Sat Jan 20 13:41:02 2018, MaxMem=  4294967296 cpu:               0.3 elap:               0.0
 (Enter /share/apps/g16/l301.exe)
 Standard basis: CC-pVDZ (5D, 7F)
 Ernie: Thresh=  0.10000D-02 Tol=  0.10000D-05 Strict=F.
 Ernie:  86 primitive shells out of 1081 were deleted.
 There are   780 symmetry adapted cartesian basis functions of A   symmetry.
 There are   737 symmetry adapted basis functions of A   symmetry.
   737 basis functions,  1608 primitive gaussians,   780 cartesian basis functions
   154 alpha electrons      154 beta electrons
       nuclear repulsion energy      5635.5059221651 Hartrees.
 IExCor= 4639 DFT=T Ex+Corr=wB97XD ExCW=0 ScaHFX=  1.000000
 ScaDFX=  1.000000  1.000000  1.000000  1.000000 ScalE2=  1.000000  1.000000
 IRadAn=      5 IRanWt=     -1 IRanGd=            0 ICorTp=0 IEmpDi=121
 HFx  wShort=  0.000000 wLong=  0.200000 cFull=  0.222036 cShort=  0.000000 cLong=  0.777964
 DFx  wShort=  0.000000 wLong=  0.200000 cFull=  0.000000 cShort=  0.000000 cLong=  1.000000
 NAtoms=   70 NActive=   70 NUniq=   70 SFac= 1.00D+00 NAtFMM=   60 NAOKFM=T Big=T
 Integral buffers will be    131072 words long.
 Raffenetti 2 integral format.
 Two-electron integral symmetry is turned on.
 R6Disp:  Grimme-D2 Dispersion energy=       -0.0806245881 Hartrees.
 Nuclear repulsion after empirical dispersion term =     5635.4252975770 Hartrees.
 Leave Link  301 at Sat Jan 20 13:41:02 2018, MaxMem=  4294967296 cpu:               2.2 elap:               0.1
 (Enter /share/apps/g16/l302.exe)
 NPDir=0 NMtPBC=     1 NCelOv=     1 NCel=       1 NClECP=     1 NCelD=      1
         NCelK=      1 NCelE2=     1 NClLst=     1 CellRange=     0.0.
 One-electron integrals computed using PRISM.
 One-electron integral symmetry used in STVInt
 NBasis=   737 RedAO= T EigKep=  6.55D-04  NBF=   737
 NBsUse=   737 1.00D-06 EigRej= -1.00D+00 NBFU=   737
 Precomputing XC quadrature grid using
 IXCGrd= 4 IRadAn=           5 IRanWt=          -1 IRanGd=           0 AccXCQ= 0.00D+00.
 Generated NRdTot=       0 NPtTot=           0 NUsed=           0 NTot=          32
 NSgBfM=   770   770   770   770   770 MxSgAt=    70 MxSgA2=    70.
 Leave Link  302 at Sat Jan 20 13:41:06 2018, MaxMem=  4294967296 cpu:             134.3 elap:               4.2
 (Enter /share/apps/g16/l303.exe)
 DipDrv:  MaxL=1.
 Leave Link  303 at Sat Jan 20 13:41:07 2018, MaxMem=  4294967296 cpu:              12.8 elap:               0.5
 (Enter /share/apps/g16/l401.exe)
 ExpMin= 1.22D-01 ExpMax= 1.17D+04 ExpMxC= 4.01D+02 IAcc=3 IRadAn=         5 AccDes= 0.00D+00
 Harris functional with IExCor= 4639 and IRadAn=       5 diagonalized for initial guess.
 HarFok:  IExCor= 4639 AccDes= 0.00D+00 IRadAn=         5 IDoV= 1 UseB2=F ITyADJ=14
 ICtDFT=  3500011 ScaDFX=  1.000000  1.000000  1.000000  1.000000
 FoFCou: FMM=F IPFlag=           0 FMFlag=      100000 FMFlg1=        2001
         NFxFlg=           0 DoJE=T BraDBF=F KetDBF=T FulRan=T
         wScrn=  0.000000 ICntrl=       500 IOpCl=  0 I1Cent=   200000004 NGrid=           0
         NMat0=    1 NMatS0=      1 NMatT0=    0 NMatD0=    1 NMtDS0=    0 NMtDT0=    0
 Petite list used in FoFCou.
 Harris En= -1963.85907960941    
 JPrj=0 DoOrth=F DoCkMO=F.
 Leave Link  401 at Sat Jan 20 13:41:20 2018, MaxMem=  4294967296 cpu:             417.8 elap:              13.1
 (Enter /share/apps/g16/l502.exe)
 Integral symmetry usage will be decided dynamically.
 Closed shell SCF:
 Using DIIS extrapolation, IDIIS=  1040.
 NGot=  4294967296 LenX=  4293717438 LenY=  4293108258
 Requested convergence on RMS density matrix=1.00D-08 within  20 cycles.
 Requested convergence on MAX density matrix=1.00D-06.
 Requested convergence on             energy=1.00D-06.
 No special actions if energy rises.
 Fock matrices will be formed incrementally for  20 cycles.
 Integral accuracy reduced to 1.0D-05 until final iterations.

 Cycle   1  Pass 0  IDiag  1:
 FoFJK:  IHMeth= 1 ICntrl=       0 DoSepK=T KAlg= 0 I1Cent=           0 FoldK=F
 IRaf=         1 NMat=       1 IRICut=       1 DoRegI=T DoRafI=F ISym2E= 0 IDoP0=0 IntGTp=1.
 FoFCou: FMM=T IPFlag=           0 FMFlag=      100000 FMFlg1=        2001
         NFxFlg=           0 DoJE=T BraDBF=F KetDBF=F FulRan=T
         wScrn=  0.000000 ICntrl=       500 IOpCl=  0 I1Cent=           0 NGrid=           0
         NMat0=    1 NMatS0=      1 NMatT0=    0 NMatD0=    1 NMtDS0=    0 NMtDT0=    0
 Symmetry not used in FoFCou.
 FMM levels:  10  Number of levels for PrismC:   9
 E= -2048.29827486358    
 DIIS: error= 2.12D-02 at cycle   1 NSaved=   1.
 NSaved= 1 IEnMin= 1 EnMin= -2048.29827486358     IErMin= 1 ErrMin= 2.12D-02
 ErrMax= 2.12D-02  0.00D+00 EMaxC= 1.00D-01 BMatC= 8.32D-01 BMatP= 8.32D-01
 IDIUse=3 WtCom= 7.88D-01 WtEn= 2.12D-01
 Coeff-Com:  0.100D+01
 Coeff-En:   0.100D+01
 Coeff:      0.100D+01
 Gap=     0.258 Goal=   None    Shift=    0.000
 GapD=    0.258 DampG=1.000 DampE=0.500 DampFc=0.5000 IDamp=-1.
 Damping current iteration by 5.00D-01
 RMSDP=1.59D-03 MaxDP=1.31D-01              OVMax= 1.97D-01

 Cycle   2  Pass 0  IDiag  1:
 RMSU=  7.95D-04    CP:  9.98D-01
 E= -2048.49409241521     Delta-E=       -0.195817551633 Rises=F Damp=T
 DIIS: error= 1.18D-02 at cycle   2 NSaved=   2.
 NSaved= 2 IEnMin= 2 EnMin= -2048.49409241521     IErMin= 2 ErrMin= 1.18D-02
 ErrMax= 1.18D-02  0.00D+00 EMaxC= 1.00D-01 BMatC= 1.46D-01 BMatP= 8.32D-01
 IDIUse=3 WtCom= 8.82D-01 WtEn= 1.18D-01
 Coeff-Com: -0.190D+00 0.119D+01
 Coeff-En:   0.000D+00 0.100D+01
 Coeff:     -0.168D+00 0.117D+01
 Gap=     0.314 Goal=   None    Shift=    0.000
 RMSDP=6.01D-04 MaxDP=3.58D-02 DE=-1.96D-01 OVMax= 1.22D-01

 Cycle   3  Pass 0  IDiag  1:
 RMSU=  5.91D-04    CP:  9.94D-01  1.12D+00
 E= -2048.67148113242     Delta-E=       -0.177388717211 Rises=F Damp=F
 DIIS: error= 6.62D-03 at cycle   3 NSaved=   3.
 NSaved= 3 IEnMin= 3 EnMin= -2048.67148113242     IErMin= 3 ErrMin= 6.62D-03
 ErrMax= 6.62D-03  0.00D+00 EMaxC= 1.00D-01 BMatC= 6.71D-02 BMatP= 1.46D-01
 IDIUse=3 WtCom= 9.34D-01 WtEn= 6.62D-02
 Coeff-Com: -0.233D+00 0.557D+00 0.676D+00
 Coeff-En:   0.000D+00 0.000D+00 0.100D+01
 Coeff:     -0.218D+00 0.520D+00 0.698D+00
 Gap=     0.286 Goal=   None    Shift=    0.000
 RMSDP=3.74D-04 MaxDP=3.39D-02 DE=-1.77D-01 OVMax= 6.97D-02

 Cycle   4  Pass 0  IDiag  1:
 RMSU=  2.11D-04    CP:  9.94D-01  1.42D+00  6.61D-01
 E= -2048.72210920694     Delta-E=       -0.050628074516 Rises=F Damp=F
 DIIS: error= 2.38D-03 at cycle   4 NSaved=   4.
 NSaved= 4 IEnMin= 4 EnMin= -2048.72210920694     IErMin= 4 ErrMin= 2.38D-03
 ErrMax= 2.38D-03  0.00D+00 EMaxC= 1.00D-01 BMatC= 9.61D-03 BMatP= 6.71D-02
 IDIUse=3 WtCom= 9.76D-01 WtEn= 2.38D-02
 Coeff-Com: -0.979D-01 0.190D+00 0.376D+00 0.532D+00
 Coeff-En:   0.000D+00 0.000D+00 0.672D-01 0.933D+00
 Coeff:     -0.956D-01 0.185D+00 0.369D+00 0.542D+00
 Gap=     0.287 Goal=   None    Shift=    0.000
 RMSDP=1.31D-04 MaxDP=1.12D-02 DE=-5.06D-02 OVMax= 1.59D-02

 Cycle   5  Pass 0  IDiag  1:
 RMSU=  6.33D-05    CP:  9.94D-01  1.39D+00  7.94D-01  6.18D-01
 E= -2048.73011746502     Delta-E=       -0.008008258085 Rises=F Damp=F
 DIIS: error= 5.41D-04 at cycle   5 NSaved=   5.
 NSaved= 5 IEnMin= 5 EnMin= -2048.73011746502     IErMin= 5 ErrMin= 5.41D-04
 ErrMax= 5.41D-04  0.00D+00 EMaxC= 1.00D-01 BMatC= 3.00D-04 BMatP= 9.61D-03
 IDIUse=3 WtCom= 9.95D-01 WtEn= 5.41D-03
 Coeff-Com: -0.260D-01 0.449D-01 0.123D+00 0.238D+00 0.620D+00
 Coeff-En:   0.000D+00 0.000D+00 0.000D+00 0.000D+00 0.100D+01
 Coeff:     -0.259D-01 0.446D-01 0.122D+00 0.237D+00 0.622D+00
 Gap=     0.287 Goal=   None    Shift=    0.000
 RMSDP=2.74D-05 MaxDP=1.63D-03 DE=-8.01D-03 OVMax= 3.57D-03

 Failed to achieve initial convergence to 1.0D-08 in  6 cycles.
 Switch to full accuracy anyway.
 Cycle   6  Pass 1  IDiag  1:
 E= -2048.73026279608     Delta-E=       -0.000145331062 Rises=F Damp=F
 DIIS: error= 2.88D-04 at cycle   1 NSaved=   1.
 NSaved= 1 IEnMin= 1 EnMin= -2048.73026279608     IErMin= 1 ErrMin= 2.88D-04
 ErrMax= 2.88D-04  0.00D+00 EMaxC= 1.00D-01 BMatC= 8.31D-05 BMatP= 8.31D-05
 IDIUse=3 WtCom= 9.97D-01 WtEn= 2.88D-03
 Coeff-Com:  0.100D+01
 Coeff-En:   0.100D+01
 Coeff:      0.100D+01
 Gap=     0.287 Goal=   None    Shift=    0.000
 RMSDP=2.74D-05 MaxDP=1.63D-03 DE=-1.45D-04 OVMax= 2.29D-03

 Cycle   7  Pass 1  IDiag  1:
 RMSU=  1.28D-04    CP:  1.00D+00
 E= -2048.73032232733     Delta-E=       -0.000059531249 Rises=F Damp=F
 DIIS: error= 2.13D-04 at cycle   2 NSaved=   2.
 NSaved= 2 IEnMin= 2 EnMin= -2048.73032232733     IErMin= 2 ErrMin= 2.13D-04
 ErrMax= 2.13D-04  0.00D+00 EMaxC= 1.00D-01 BMatC= 4.76D-05 BMatP= 8.31D-05
 IDIUse=3 WtCom= 9.98D-01 WtEn= 2.13D-03
 Coeff-Com:  0.406D+00 0.594D+00
 Coeff-En:   0.000D+00 0.100D+01
 Coeff:      0.405D+00 0.595D+00
 Gap=     0.287 Goal=   None    Shift=    0.000
 RMSDP=1.25D-05 MaxDP=9.10D-04 DE=-5.95D-05 OVMax= 1.83D-03

 Cycle   8  Pass 1  IDiag  1:
 RMSU=  1.21D-05    CP:  1.00D+00  1.02D+00
 E= -2048.73035736316     Delta-E=       -0.000035035825 Rises=F Damp=F
 DIIS: error= 8.70D-05 at cycle   3 NSaved=   3.
 NSaved= 3 IEnMin= 3 EnMin= -2048.73035736316     IErMin= 3 ErrMin= 8.70D-05
 ErrMax= 8.70D-05  0.00D+00 EMaxC= 1.00D-01 BMatC= 1.16D-05 BMatP= 4.76D-05
 IDIUse=1 WtCom= 1.00D+00 WtEn= 0.00D+00
 Coeff-Com: -0.193D-01 0.318D+00 0.701D+00
 Coeff:     -0.193D-01 0.318D+00 0.701D+00
 Gap=     0.287 Goal=   None    Shift=    0.000
 RMSDP=6.15D-06 MaxDP=4.10D-04 DE=-3.50D-05 OVMax= 7.09D-04

 Cycle   9  Pass 1  IDiag  1:
 RMSU=  4.08D-06    CP:  1.00D+00  1.05D+00  7.55D-01
 E= -2048.73036867423     Delta-E=       -0.000011311072 Rises=F Damp=F
 DIIS: error= 1.65D-05 at cycle   4 NSaved=   4.
 NSaved= 4 IEnMin= 4 EnMin= -2048.73036867423     IErMin= 4 ErrMin= 1.65D-05
 ErrMax= 1.65D-05  0.00D+00 EMaxC= 1.00D-01 BMatC= 5.84D-07 BMatP= 1.16D-05
 IDIUse=1 WtCom= 1.00D+00 WtEn= 0.00D+00
 Coeff-Com: -0.300D-01 0.916D-01 0.270D+00 0.669D+00
 Coeff:     -0.300D-01 0.916D-01 0.270D+00 0.669D+00
 Gap=     0.287 Goal=   None    Shift=    0.000
 RMSDP=1.54D-06 MaxDP=1.31D-04 DE=-1.13D-05 OVMax= 4.22D-04

 Cycle  10  Pass 1  IDiag  1:
 RMSU=  1.37D-06    CP:  1.00D+00  1.05D+00  7.92D-01  1.10D+00
 E= -2048.73036962139     Delta-E=       -0.000000947161 Rises=F Damp=F
 DIIS: error= 1.32D-05 at cycle   5 NSaved=   5.
 NSaved= 5 IEnMin= 5 EnMin= -2048.73036962139     IErMin= 5 ErrMin= 1.32D-05
 ErrMax= 1.32D-05  0.00D+00 EMaxC= 1.00D-01 BMatC= 1.31D-07 BMatP= 5.84D-07
 IDIUse=1 WtCom= 1.00D+00 WtEn= 0.00D+00
 Coeff-Com: -0.318D-02-0.573D-01-0.117D+00 0.202D+00 0.975D+00
 Coeff:     -0.318D-02-0.573D-01-0.117D+00 0.202D+00 0.975D+00
 Gap=     0.287 Goal=   None    Shift=    0.000
 RMSDP=1.29D-06 MaxDP=7.99D-05 DE=-9.47D-07 OVMax= 2.29D-04

 Cycle  11  Pass 1  IDiag  1:
 RMSU=  5.25D-07    CP:  1.00D+00  1.06D+00  8.06D-01  1.38D+00  1.18D+00
 E= -2048.73036991694     Delta-E=       -0.000000295554 Rises=F Damp=F
 DIIS: error= 5.47D-06 at cycle   6 NSaved=   6.
 NSaved= 6 IEnMin= 6 EnMin= -2048.73036991694     IErMin= 6 ErrMin= 5.47D-06
 ErrMax= 5.47D-06  0.00D+00 EMaxC= 1.00D-01 BMatC= 3.36D-08 BMatP= 1.31D-07
 IDIUse=1 WtCom= 1.00D+00 WtEn= 0.00D+00
 Coeff-Com:  0.468D-02-0.483D-01-0.117D+00-0.535D-02 0.530D+00 0.636D+00
 Coeff:      0.468D-02-0.483D-01-0.117D+00-0.535D-02 0.530D+00 0.636D+00
 Gap=     0.287 Goal=   None    Shift=    0.000
 RMSDP=4.15D-07 MaxDP=3.75D-05 DE=-2.96D-07 OVMax= 1.14D-04

 Cycle  12  Pass 1  IDiag  1:
 RMSU=  2.02D-07    CP:  1.00D+00  1.05D+00  8.09D-01  1.45D+00  1.32D+00
                    CP:  9.45D-01
 E= -2048.73036996564     Delta-E=       -0.000000048699 Rises=F Damp=F
 DIIS: error= 1.20D-06 at cycle   7 NSaved=   7.
 NSaved= 7 IEnMin= 7 EnMin= -2048.73036996564     IErMin= 7 ErrMin= 1.20D-06
 ErrMax= 1.20D-06  0.00D+00 EMaxC= 1.00D-01 BMatC= 8.52D-10 BMatP= 3.36D-08
 IDIUse=1 WtCom= 1.00D+00 WtEn= 0.00D+00
 Coeff-Com:  0.108D-02-0.766D-02-0.197D-01-0.964D-02 0.569D-01 0.129D+00
 Coeff-Com:  0.850D+00
 Coeff:      0.108D-02-0.766D-02-0.197D-01-0.964D-02 0.569D-01 0.129D+00
 Coeff:      0.850D+00
 Gap=     0.287 Goal=   None    Shift=    0.000
 RMSDP=9.14D-08 MaxDP=5.65D-06 DE=-4.87D-08 OVMax= 2.14D-05

 Cycle  13  Pass 1  IDiag  1:
 RMSU=  5.27D-08    CP:  1.00D+00  1.05D+00  8.09D-01  1.46D+00  1.34D+00
                    CP:  1.03D+00  1.15D+00
 E= -2048.73036996792     Delta-E=       -0.000000002278 Rises=F Damp=F
 DIIS: error= 6.70D-07 at cycle   8 NSaved=   8.
 NSaved= 8 IEnMin= 8 EnMin= -2048.73036996792     IErMin= 8 ErrMin= 6.70D-07
 ErrMax= 6.70D-07  0.00D+00 EMaxC= 1.00D-01 BMatC= 3.72D-10 BMatP= 8.52D-10
 IDIUse=1 WtCom= 1.00D+00 WtEn= 0.00D+00
 Coeff-Com: -0.757D-03 0.961D-02 0.225D-01-0.167D-02-0.117D+00-0.109D+00
 Coeff-Com:  0.426D+00 0.770D+00
 Coeff:     -0.757D-03 0.961D-02 0.225D-01-0.167D-02-0.117D+00-0.109D+00
 Coeff:      0.426D+00 0.770D+00
 Gap=     0.287 Goal=   None    Shift=    0.000
 RMSDP=5.16D-08 MaxDP=2.92D-06 DE=-2.28D-09 OVMax= 1.12D-05

 Cycle  14  Pass 1  IDiag  1:
 RMSU=  3.01D-08    CP:  1.00D+00  1.05D+00  8.08D-01  1.46D+00  1.34D+00
                    CP:  1.08D+00  1.30D+00  1.13D+00
 E= -2048.73036996845     Delta-E=       -0.000000000529 Rises=F Damp=F
 DIIS: error= 1.91D-07 at cycle   9 NSaved=   9.
 NSaved= 9 IEnMin= 9 EnMin= -2048.73036996845     IErMin= 9 ErrMin= 1.91D-07
 ErrMax= 1.91D-07  0.00D+00 EMaxC= 1.00D-01 BMatC= 3.15D-11 BMatP= 3.72D-10
 IDIUse=1 WtCom= 1.00D+00 WtEn= 0.00D+00
 Coeff-Com: -0.414D-03 0.463D-02 0.110D-01 0.482D-03-0.513D-01-0.571D-01
 Coeff-Com:  0.777D-01 0.287D+00 0.728D+00
 Coeff:     -0.414D-03 0.463D-02 0.110D-01 0.482D-03-0.513D-01-0.571D-01
 Coeff:      0.777D-01 0.287D+00 0.728D+00
 Gap=     0.287 Goal=   None    Shift=    0.000
 RMSDP=1.45D-08 MaxDP=9.16D-07 DE=-5.29D-10 OVMax= 3.20D-06

 Cycle  15  Pass 1  IDiag  1:
 RMSU=  9.62D-09    CP:  1.00D+00  1.05D+00  8.08D-01  1.46D+00  1.35D+00
                    CP:  1.08D+00  1.32D+00  1.27D+00  1.12D+00
 E= -2048.73036996841     Delta-E=        0.000000000037 Rises=F Damp=F
 DIIS: error= 7.75D-08 at cycle  10 NSaved=  10.
 NSaved=10 IEnMin= 9 EnMin= -2048.73036996845     IErMin=10 ErrMin= 7.75D-08
 ErrMax= 7.75D-08  0.00D+00 EMaxC= 1.00D-01 BMatC= 5.68D-12 BMatP= 3.15D-11
 IDIUse=1 WtCom= 1.00D+00 WtEn= 0.00D+00
 Coeff-Com:  0.208D-04-0.492D-03-0.108D-02 0.195D-03 0.734D-02 0.368D-02
 Coeff-Com: -0.608D-01-0.690D-01 0.266D+00 0.854D+00
 Coeff:      0.208D-04-0.492D-03-0.108D-02 0.195D-03 0.734D-02 0.368D-02
 Coeff:     -0.608D-01-0.690D-01 0.266D+00 0.854D+00
 Gap=     0.287 Goal=   None    Shift=    0.000
 RMSDP=7.46D-09 MaxDP=4.03D-07 DE= 3.73D-11 OVMax= 1.45D-06

 SCF Done:  E(RwB97XD) =  -2048.73036997     A.U. after   15 cycles
            NFock= 15  Conv=0.75D-08     -V/T= 2.0053
 KE= 2.037941291164D+03 PE=-1.605147861070D+04 EE= 6.329381651989D+03
 Leave Link  502 at Sat Jan 20 13:53:36 2018, MaxMem=  4294967296 cpu:           22832.0 elap:             735.6
 (Enter /share/apps/g16/l601.exe)
 Copying SCF densities to generalized density rwf, IOpCl= 0 IROHF=0.

 **********************************************************************

            Population analysis using the SCF density.

 **********************************************************************

 Orbital symmetries:
       Occupied  (A) (A) (A) (A) (A) (A) (A) (A) (A) (A) (A) (A)
                 (A) (A) (A) (A) (A) (A) (A) (A) (A) (A) (A) (A)
                 (A) (A) (A) (A) (A) (A) (A) (A) (A) (A) (A) (A)
                 (A) (A) (A) (A) (A) (A) (A) (A) (A) (A) (A) (A)
                 (A) (A) (A) (A) (A) (A) (A) (A) (A) (A) (A) (A)
                 (A) (A) (A) (A) (A) (A) (A) (A) (A) (A) (A) (A)
                 (A) (A) (A) (A) (A) (A) (A) (A) (A) (A) (A) (A)
                 (A) (A) (A) (A) (A) (A) (A) (A) (A) (A) (A) (A)
                 (A) (A) (A) (A) (A) (A) (A) (A) (A) (A) (A) (A)
                 (A) (A) (A) (A) (A) (A) (A) (A) (A) (A) (A) (A)
                 (A) (A) (A) (A) (A) (A) (A) (A) (A) (A) (A) (A)
                 (A) (A) (A) (A) (A) (A) (A) (A) (A) (A) (A) (A)
                 (A) (A) (A) (A) (A) (A) (A) (A) (A) (A)
       Virtual   (A) (A) (A) (A) (A) (A) (A) (A) (A) (A) (A) (A)
                 (A) (A) (A) (A) (A) (A) (A) (A) (A) (A) (A) (A)
                 (A) (A) (A) (A) (A) (A) (A) (A) (A) (A) (A) (A)
                 (A) (A) (A) (A) (A) (A) (A) (A) (A) (A) (A) (A)
                 (A) (A) (A) (A) (A) (A) (A) (A) (A) (A) (A) (A)
                 (A) (A) (A) (A) (A) (A) (A) (A) (A) (A) (A) (A)
                 (A) (A) (A) (A) (A) (A) (A) (A) (A) (A) (A) (A)
                 (A) (A) (A) (A) (A) (A) (A) (A) (A) (A) (A) (A)
                 (A) (A) (A) (A) (A) (A) (A) (A) (A) (A) (A) (A)
                 (A) (A) (A) (A) (A) (A) (A) (A) (A) (A) (A) (A)
                 (A) (A) (A) (A) (A) (A) (A) (A) (A) (A) (A) (A)
                 (A) (A) (A) (A) (A) (A) (A) (A) (A) (A) (A) (A)
                 (A) (A) (A) (A) (A) (A) (A) (A) (A) (A) (A) (A)
                 (A) (A) (A) (A) (A) (A) (A) (A) (A) (A) (A) (A)
                 (A) (A) (A) (A) (A) (A) (A) (A) (A) (A) (A) (A)
                 (A) (A) (A) (A) (A) (A) (A) (A) (A) (A) (A) (A)
                 (A) (A) (A) (A) (A) (A) (A) (A) (A) (A) (A) (A)
                 (A) (A) (A) (A) (A) (A) (A) (A) (A) (A) (A) (A)
                 (A) (A) (A) (A) (A) (A) (A) (A) (A) (A) (A) (A)
                 (A) (A) (A) (A) (A) (A) (A) (A) (A) (A) (A) (A)
                 (A) (A) (A) (A) (A) (A) (A) (A) (A) (A) (A) (A)
                 (A) (A) (A) (A) (A) (A) (A) (A) (A) (A) (A) (A)
                 (A) (A) (A) (A) (A) (A) (A) (A) (A) (A) (A) (A)
                 (A) (A) (A) (A) (A) (A) (A) (A) (A) (A) (A) (A)
                 (A) (A) (A) (A) (A) (A) (A) (A) (A) (A) (A) (A)
                 (A) (A) (A) (A) (A) (A) (A) (A) (A) (A) (A) (A)
                 (A) (A) (A) (A) (A) (A) (A) (A) (A) (A) (A) (A)
                 (A) (A) (A) (A) (A) (A) (A) (A) (A) (A) (A) (A)
                 (A) (A) (A) (A) (A) (A) (A) (A) (A) (A) (A) (A)
                 (A) (A) (A) (A) (A) (A) (A) (A) (A) (A) (A) (A)
                 (A) (A) (A) (A) (A) (A) (A) (A) (A) (A) (A) (A)
                 (A) (A) (A) (A) (A) (A) (A) (A) (A) (A) (A) (A)
                 (A) (A) (A) (A) (A) (A) (A) (A) (A) (A) (A) (A)
                 (A) (A) (A) (A) (A) (A) (A) (A) (A) (A) (A) (A)
                 (A) (A) (A) (A) (A) (A) (A) (A) (A) (A) (A) (A)
                 (A) (A) (A) (A) (A) (A) (A) (A) (A) (A) (A) (A)
                 (A) (A) (A) (A) (A) (A) (A) (A) (A) (A) (A) (A)
                 (A) (A) (A) (A) (A) (A) (A) (A) (A) (A) (A) (A)
                 (A) (A) (A) (A) (A) (A) (A) (A) (A) (A) (A) (A)
                 (A) (A) (A) (A) (A) (A) (A) (A) (A) (A) (A) (A)
                 (A) (A) (A) (A) (A) (A) (A) (A) (A) (A) (A) (A)
                 (A) (A) (A) (A) (A) (A) (A) (A) (A) (A) (A) (A)
                 (A) (A) (A) (A) (A) (A) (A) (A) (A) (A) (A) (A)
                 (A) (A) (A) (A) (A) (A) (A) (A) (A) (A) (A) (A)
                 (A) (A) (A) (A) (A) (A) (A) (A) (A) (A) (A) (A)
                 (A) (A) (A) (A) (A) (A) (A) (A) (A) (A) (A) (A)
                 (A) (A) (A) (A) (A) (A) (A) (A) (A) (A) (A) (A)
                 (A) (A) (A) (A) (A) (A) (A) (A) (A) (A) (A) (A)
                 (A) (A) (A) (A) (A) (A) (A)
 The electronic state is 1-A.
 Alpha  occ. eigenvalues --  -19.25313 -19.21523 -19.20502 -14.52534 -14.51982
 Alpha  occ. eigenvalues --  -14.49257 -14.48225 -14.48058 -14.47364 -14.46688
 Alpha  occ. eigenvalues --  -14.46345 -14.45833 -14.44359 -14.44348 -14.42883
 Alpha  occ. eigenvalues --  -14.41797 -14.41766 -14.41373 -14.40632 -14.40566
 Alpha  occ. eigenvalues --  -10.44878 -10.41030 -10.39950 -10.39647 -10.38215
 Alpha  occ. eigenvalues --  -10.38069 -10.37324 -10.37289 -10.35912 -10.35690
 Alpha  occ. eigenvalues --  -10.34698 -10.34453 -10.34414 -10.33949 -10.33796
 Alpha  occ. eigenvalues --  -10.33324 -10.33060 -10.32833 -10.31736 -10.30594
 Alpha  occ. eigenvalues --  -10.30125 -10.28892 -10.27826  -1.19111  -1.15546
 Alpha  occ. eigenvalues --   -1.13036  -1.12566  -1.11786  -1.10280  -1.09365
 Alpha  occ. eigenvalues --   -1.08872  -1.08360  -1.05510  -1.04829  -1.02052
 Alpha  occ. eigenvalues --   -1.01270  -1.00999  -0.99477  -0.98373  -0.97464
 Alpha  occ. eigenvalues --   -0.96876  -0.96226  -0.93189  -0.90592  -0.87922
 Alpha  occ. eigenvalues --   -0.86291  -0.84456  -0.83773  -0.83420  -0.82868
 Alpha  occ. eigenvalues --   -0.81990  -0.78419  -0.77252  -0.75085  -0.74340
 Alpha  occ. eigenvalues --   -0.73479  -0.73325  -0.72958  -0.71507  -0.70597
 Alpha  occ. eigenvalues --   -0.67136  -0.66930  -0.66837  -0.66139  -0.64450
 Alpha  occ. eigenvalues --   -0.64233  -0.63544  -0.63235  -0.62531  -0.61878
 Alpha  occ. eigenvalues --   -0.61514  -0.60894  -0.60651  -0.59702  -0.59157
 Alpha  occ. eigenvalues --   -0.58217  -0.58084  -0.57532  -0.57091  -0.56293
 Alpha  occ. eigenvalues --   -0.55977  -0.55779  -0.55474  -0.54222  -0.54143
 Alpha  occ. eigenvalues --   -0.53831  -0.53738  -0.53400  -0.53221  -0.52889
 Alpha  occ. eigenvalues --   -0.52628  -0.52355  -0.52198  -0.51221  -0.50643
 Alpha  occ. eigenvalues --   -0.49997  -0.49778  -0.49332  -0.49084  -0.48744
 Alpha  occ. eigenvalues --   -0.48427  -0.48218  -0.48053  -0.47500  -0.47099
 Alpha  occ. eigenvalues --   -0.46928  -0.45758  -0.45284  -0.44702  -0.43034
 Alpha  occ. eigenvalues --   -0.41350  -0.40955  -0.39184  -0.37911  -0.37827
 Alpha  occ. eigenvalues --   -0.37707  -0.37164  -0.36921  -0.36078  -0.34792
 Alpha  occ. eigenvalues --   -0.34395  -0.34038  -0.33856  -0.33479  -0.32817
 Alpha  occ. eigenvalues --   -0.32415  -0.32273  -0.31709  -0.31646  -0.31019
 Alpha  occ. eigenvalues --   -0.30888  -0.29364  -0.26007  -0.25216
 Alpha virt. eigenvalues --    0.03514   0.03707   0.06920   0.07165   0.08507
 Alpha virt. eigenvalues --    0.08872   0.09957   0.10348   0.11015   0.12328
 Alpha virt. eigenvalues --    0.13186   0.13937   0.13983   0.14108   0.14675
 Alpha virt. eigenvalues --    0.15205   0.16179   0.17457   0.17866   0.18259
 Alpha virt. eigenvalues --    0.18368   0.19120   0.19687   0.19914   0.20339
 Alpha virt. eigenvalues --    0.20568   0.21124   0.21325   0.21614   0.22281
 Alpha virt. eigenvalues --    0.22702   0.23063   0.23283   0.23955   0.24160
 Alpha virt. eigenvalues --    0.24599   0.24824   0.25258   0.25685   0.26022
 Alpha virt. eigenvalues --    0.26309   0.27482   0.27911   0.28260   0.28775
 Alpha virt. eigenvalues --    0.29007   0.29504   0.29922   0.30364   0.30592
 Alpha virt. eigenvalues --    0.31510   0.31760   0.32872   0.33376   0.33596
 Alpha virt. eigenvalues --    0.33960   0.34369   0.35807   0.36261   0.36513
 Alpha virt. eigenvalues --    0.36853   0.37562   0.38278   0.38946   0.39039
 Alpha virt. eigenvalues --    0.39984   0.40221   0.40533   0.41446   0.41691
 Alpha virt. eigenvalues --    0.42456   0.42895   0.43365   0.43688   0.43960
 Alpha virt. eigenvalues --    0.44926   0.45825   0.46538   0.46843   0.47272
 Alpha virt. eigenvalues --    0.47697   0.48160   0.48828   0.48942   0.49470
 Alpha virt. eigenvalues --    0.49677   0.50460   0.51072   0.51681   0.51792
 Alpha virt. eigenvalues --    0.51857   0.52403   0.52557   0.53494   0.53753
 Alpha virt. eigenvalues --    0.54224   0.54848   0.55163   0.55624   0.56142
 Alpha virt. eigenvalues --    0.56271   0.56556   0.57080   0.57504   0.57630
 Alpha virt. eigenvalues --    0.58180   0.58461   0.59330   0.59397   0.59873
 Alpha virt. eigenvalues --    0.60426   0.60743   0.61024   0.61456   0.61848
 Alpha virt. eigenvalues --    0.62218   0.62711   0.62807   0.63828   0.64478
 Alpha virt. eigenvalues --    0.64637   0.64990   0.65065   0.65569   0.65815
 Alpha virt. eigenvalues --    0.66016   0.66263   0.66961   0.67441   0.68320
 Alpha virt. eigenvalues --    0.68606   0.69190   0.69315   0.69775   0.70261
 Alpha virt. eigenvalues --    0.70598   0.70971   0.71277   0.72316   0.72703
 Alpha virt. eigenvalues --    0.73429   0.73447   0.73792   0.74283   0.74482
 Alpha virt. eigenvalues --    0.74736   0.75089   0.75527   0.75664   0.76053
 Alpha virt. eigenvalues --    0.76264   0.76643   0.76792   0.77155   0.78017
 Alpha virt. eigenvalues --    0.78080   0.78789   0.79112   0.79598   0.79639
 Alpha virt. eigenvalues --    0.79793   0.80585   0.80825   0.81039   0.81733
 Alpha virt. eigenvalues --    0.81918   0.82393   0.82949   0.83313   0.83782
 Alpha virt. eigenvalues --    0.84060   0.84137   0.85030   0.85255   0.85532
 Alpha virt. eigenvalues --    0.85934   0.86399   0.86757   0.87574   0.87802
 Alpha virt. eigenvalues --    0.88040   0.88449   0.88953   0.89859   0.90363
 Alpha virt. eigenvalues --    0.90546   0.91173   0.91985   0.92375   0.93235
 Alpha virt. eigenvalues --    0.93409   0.93540   0.94232   0.94544   0.95131
 Alpha virt. eigenvalues --    0.95410   0.96102   0.96435   0.97757   0.97803
 Alpha virt. eigenvalues --    0.98300   0.98524   0.98885   0.99516   1.00015
 Alpha virt. eigenvalues --    1.00167   1.00256   1.01092   1.02134   1.02288
 Alpha virt. eigenvalues --    1.02787   1.03248   1.03538   1.04152   1.04656
 Alpha virt. eigenvalues --    1.05098   1.05277   1.05480   1.05837   1.06783
 Alpha virt. eigenvalues --    1.07167   1.07926   1.08302   1.09110   1.09511
 Alpha virt. eigenvalues --    1.09912   1.10319   1.11252   1.11790   1.11908
 Alpha virt. eigenvalues --    1.12874   1.13578   1.13904   1.14311   1.14560
 Alpha virt. eigenvalues --    1.15065   1.15126   1.15497   1.16538   1.16965
 Alpha virt. eigenvalues --    1.17300   1.17732   1.18074   1.18266   1.18593
 Alpha virt. eigenvalues --    1.19148   1.19518   1.20550   1.20698   1.20876
 Alpha virt. eigenvalues --    1.21386   1.21870   1.21998   1.22247   1.22521
 Alpha virt. eigenvalues --    1.23271   1.23619   1.23729   1.24045   1.24460
 Alpha virt. eigenvalues --    1.25358   1.25890   1.26228   1.26643   1.27130
 Alpha virt. eigenvalues --    1.27374   1.28322   1.28544   1.29117   1.29793
 Alpha virt. eigenvalues --    1.30177   1.31078   1.31986   1.32913   1.33103
 Alpha virt. eigenvalues --    1.33887   1.34030   1.34544   1.34871   1.35287
 Alpha virt. eigenvalues --    1.35714   1.36335   1.37101   1.37535   1.38421
 Alpha virt. eigenvalues --    1.39019   1.40021   1.40386   1.40889   1.42489
 Alpha virt. eigenvalues --    1.42963   1.43569   1.44819   1.45652   1.46404
 Alpha virt. eigenvalues --    1.47221   1.47856   1.48581   1.49524   1.50053
 Alpha virt. eigenvalues --    1.50771   1.51120   1.51454   1.52337   1.53288
 Alpha virt. eigenvalues --    1.53657   1.53781   1.54437   1.55984   1.56407
 Alpha virt. eigenvalues --    1.57236   1.57707   1.58237   1.58555   1.58941
 Alpha virt. eigenvalues --    1.59964   1.60750   1.61195   1.61344   1.62036
 Alpha virt. eigenvalues --    1.62663   1.63532   1.63732   1.64186   1.64842
 Alpha virt. eigenvalues --    1.64930   1.65776   1.66602   1.67318   1.67808
 Alpha virt. eigenvalues --    1.68148   1.68583   1.69318   1.69522   1.69823
 Alpha virt. eigenvalues --    1.70716   1.71428   1.71890   1.72462   1.72651
 Alpha virt. eigenvalues --    1.72738   1.73552   1.73983   1.74161   1.74571
 Alpha virt. eigenvalues --    1.75043   1.75571   1.75720   1.76571   1.76760
 Alpha virt. eigenvalues --    1.76815   1.77267   1.77602   1.77928   1.78196
 Alpha virt. eigenvalues --    1.78598   1.78982   1.79229   1.79893   1.80156
 Alpha virt. eigenvalues --    1.80360   1.80927   1.81234   1.81895   1.82533
 Alpha virt. eigenvalues --    1.83100   1.83335   1.83368   1.83423   1.83734
 Alpha virt. eigenvalues --    1.84115   1.84593   1.84760   1.85560   1.86040
 Alpha virt. eigenvalues --    1.86185   1.86980   1.87563   1.88327   1.88655
 Alpha virt. eigenvalues --    1.88874   1.89371   1.90101   1.90423   1.91671
 Alpha virt. eigenvalues --    1.91854   1.91914   1.92202   1.92537   1.92974
 Alpha virt. eigenvalues --    1.93110   1.93311   1.94109   1.94898   1.95599
 Alpha virt. eigenvalues --    1.96314   1.98009   1.98375   1.99296   1.99403
 Alpha virt. eigenvalues --    1.99682   2.00870   2.01513   2.02010   2.02877
 Alpha virt. eigenvalues --    2.03401   2.03659   2.04117   2.04803   2.05292
 Alpha virt. eigenvalues --    2.06587   2.06660   2.07425   2.07875   2.08597
 Alpha virt. eigenvalues --    2.09105   2.10967   2.11102   2.11498   2.12234
 Alpha virt. eigenvalues --    2.12787   2.13534   2.14004   2.14536   2.14876
 Alpha virt. eigenvalues --    2.15859   2.16972   2.17611   2.18199   2.18559
 Alpha virt. eigenvalues --    2.19286   2.20010   2.20175   2.21179   2.22568
 Alpha virt. eigenvalues --    2.22955   2.23430   2.23682   2.25449   2.25816
 Alpha virt. eigenvalues --    2.26134   2.26306   2.27347   2.27874   2.28154
 Alpha virt. eigenvalues --    2.28643   2.29005   2.29764   2.30449   2.30958
 Alpha virt. eigenvalues --    2.31516   2.32286   2.32317   2.32998   2.33835
 Alpha virt. eigenvalues --    2.33996   2.34347   2.35077   2.35297   2.35719
 Alpha virt. eigenvalues --    2.36091   2.36991   2.37614   2.38150   2.38254
 Alpha virt. eigenvalues --    2.39193   2.39849   2.40243   2.41452   2.41915
 Alpha virt. eigenvalues --    2.42539   2.43312   2.44019   2.44491   2.45314
 Alpha virt. eigenvalues --    2.45555   2.45803   2.46177   2.46322   2.47591
 Alpha virt. eigenvalues --    2.49029   2.49721   2.50620   2.52499   2.52740
 Alpha virt. eigenvalues --    2.53782   2.54404   2.55682   2.56821   2.57123
 Alpha virt. eigenvalues --    2.57899   2.58496   2.59334   2.60556   2.61066
 Alpha virt. eigenvalues --    2.61737   2.63220   2.63707   2.64544   2.64808
 Alpha virt. eigenvalues --    2.65702   2.66080   2.66491   2.67235   2.68638
 Alpha virt. eigenvalues --    2.68953   2.69564   2.69986   2.71172   2.71630
 Alpha virt. eigenvalues --    2.71724   2.72401   2.72628   2.73103   2.73814
 Alpha virt. eigenvalues --    2.74440   2.75726   2.76091   2.77193   2.77721
 Alpha virt. eigenvalues --    2.78465   2.79291   2.79698   2.80266   2.80725
 Alpha virt. eigenvalues --    2.81001   2.81440   2.82023   2.82142   2.82543
 Alpha virt. eigenvalues --    2.83215   2.83595   2.84348   2.84649   2.85865
 Alpha virt. eigenvalues --    2.86448   2.86873   2.87072   2.87346   2.88498
 Alpha virt. eigenvalues --    2.89174   2.89326   2.90421   2.93754   2.94606
 Alpha virt. eigenvalues --    2.96081   2.98355   2.99235   3.00186   3.01085
 Alpha virt. eigenvalues --    3.02830   3.02993   3.03903   3.05384   3.07718
 Alpha virt. eigenvalues --    3.09301   3.10580   3.11493   3.13485   3.15432
 Alpha virt. eigenvalues --    3.15751   3.17120   3.17232   3.19536   3.22107
 Alpha virt. eigenvalues --    3.22720   3.23245   3.24077   3.24429   3.28706
 Alpha virt. eigenvalues --    3.44863   3.47869   3.48735   3.49711   3.51063
 Alpha virt. eigenvalues --    3.53269   3.54860   3.56527   3.58373   3.60615
 Alpha virt. eigenvalues --    3.64043   3.71051   3.75398
          Condensed to atoms (all electrons):
 Mulliken charges:
               1
     1  N   -0.308553
     2  C    0.173675
     3  C    0.078732
     4  N   -0.256239
     5  C    0.133867
     6  H    0.027296
     7  N   -0.285362
     8  C    0.141467
     9  H    0.014744
    10  N   -0.284723
    11  C    0.222415
    12  C    0.088357
    13  N   -0.050439
    14  H    0.109253
    15  H    0.085096
    16  H    0.029057
    17  H    0.036423
    18  H    0.024264
    19  N   -0.272666
    20  C    0.206135
    21  C    0.186364
    22  N   -0.105424
    23  H    0.113963
    24  H    0.114963
    25  N   -0.293419
    26  C    0.219720
    27  N   -0.139522
    28  H    0.121080
    29  C    0.175704
    30  O   -0.322469
    31  C    0.001450
    32  N   -0.217627
    33  C    0.116729
    34  H    0.014255
    35  H    0.015840
    36  H    0.027122
    37  H    0.019351
    38  H    0.039622
    39  H    0.057256
    40  H    0.069048
    41  H    0.025897
    42  C   -0.110575
    43  O   -0.267930
    44  C    0.171891
    45  H    0.130931
    46  N   -0.118192
    47  O   -0.330418
    48  C    0.329437
    49  H    0.044586
    50  C    0.172550
    51  C    0.055445
    52  N   -0.276330
    53  H    0.038042
    54  H    0.039677
    55  H    0.022696
    56  H    0.123972
    57  H    0.119173
    58  N   -0.061341
    59  C    0.101486
    60  C    0.191201
    61  N   -0.249763
    62  H    0.041778
    63  C    0.139003
    64  N   -0.296551
    65  H    0.039223
    66  C    0.104903
    67  N   -0.245038
    68  C    0.051945
    69  C    0.178905
    70  N   -0.293408
 Sum of Mulliken charges =  -0.00000
 Mulliken charges with hydrogens summed into heavy atoms:
               1
     1  N   -0.308553
     2  C    0.263418
     3  C    0.078732
     4  N   -0.256239
     5  C    0.161163
     7  N   -0.285362
     8  C    0.156211
    10  N   -0.284723
    11  C    0.222415
    12  C    0.088357
    13  N    0.143910
    19  N   -0.272666
    20  C    0.206135
    21  C    0.248677
    22  N    0.123502
    25  N   -0.293419
    26  C    0.219720
    27  N   -0.018442
    29  C    0.175704
    30  O   -0.322469
    31  C    0.001450
    32  N   -0.217627
    33  C    0.130984
    42  C   -0.084678
    43  O   -0.267930
    44  C    0.171891
    46  N    0.012739
    47  O   -0.330418
    48  C    0.329437
    50  C    0.217136
    51  C    0.221371
    52  N   -0.276330
    58  N    0.181804
    59  C    0.101486
    60  C    0.191201
    61  N   -0.249763
    63  C    0.180781
    64  N   -0.296551
    66  C    0.144126
    67  N   -0.245038
    68  C    0.051945
    69  C    0.279320
    70  N   -0.293408
 Electronic spatial extent (au):  <R**2>=          21661.5167
 Charge=              0.0000 electrons
 Dipole moment (field-independent basis, Debye):
    X=             -6.0490    Y=              6.5403    Z=             -4.0542  Tot=              9.7879
 Quadrupole moment (field-independent basis, Debye-Ang):
   XX=           -147.6149   YY=           -227.3655   ZZ=           -259.8737
   XY=             -9.6133   XZ=              1.7044   YZ=             11.8503
 Traceless Quadrupole moment (field-independent basis, Debye-Ang):
   XX=             64.0032   YY=            -15.7475   ZZ=            -48.2556
   XY=             -9.6133   XZ=              1.7044   YZ=             11.8503
 Octapole moment (field-independent basis, Debye-Ang**2):
  XXX=             85.8948  YYY=             78.1020  ZZZ=            -13.6497  XYY=            -72.1363
  XXY=             73.2079  XXZ=              4.6553  XZZ=            -34.8505  YZZ=             36.8419
  YYZ=            -70.2934  XYZ=             33.5748
 Hexadecapole moment (field-independent basis, Debye-Ang**3):
 XXXX=         -15754.3868 YYYY=          -4133.1929 ZZZZ=          -3504.6843 XXXY=           -619.7673
 XXXZ=           -117.7069 YYYX=              1.5283 YYYZ=             97.8661 ZZZX=              2.1361
 ZZZY=             36.0149 XXYY=          -3725.0480 XXZZ=          -3946.3259 YYZZ=          -1369.0835
 XXYZ=            -62.4626 YYXZ=            175.8537 ZZXY=            -60.6278
 N-N= 5.635425297577D+03 E-N=-1.605147860052D+04  KE= 2.037941291164D+03
 No NMR shielding tensors so no spin-rotation constants.
 Leave Link  601 at Sat Jan 20 13:53:37 2018, MaxMem=  4294967296 cpu:              49.2 elap:               1.7
 (Enter /share/apps/g16/l9999.exe)
 1\1\GINC-COMPUTE-0-3\SP\RwB97XD\CC-pVDZ\C23H27N17O3\SATYA\20-Jan-2018\
 0\\#p wb97xd/cc-pvdz sp scf=(maxcycles=20)\\Base pair stacking\\0,1\N,
 0,1.8433,5.07424,-6.78603\C,0,2.09727,6.52458,-6.68598\C,0,0.90306,3.0
 8845,-6.68648\N,0,2.16897,2.89219,-7.2191\C,0,2.68477,4.09641,-7.25776
 \H,0,3.68451,4.3312,-7.62426\N,0,-1.27788,2.72169,-5.86676\C,0,-1.3394
 7,4.04101,-5.65893\H,0,-2.27567,4.40177,-5.23509\N,0,-0.42254,4.97719,
 -5.89496\C,0,0.68797,4.42834,-6.41452\C,0,-0.14702,2.20035,-6.39062\N,
 0,-0.08362,0.8836,-6.59881\H,0,0.73375,0.45441,-6.98472\H,0,-0.85055,0
 .28158,-6.37626\H,0,2.28571,6.8949,-7.59567\H,0,1.29381,6.97872,-6.302
 15\H,0,2.88529,6.68691,-6.09212\N,0,0.35562,4.87769,-3.15889\C,0,-0.45
 965,3.78141,-3.01209\C,0,-0.08167,6.28519,-3.067\N,0,-3.60428,2.4284,-
 2.42688\H,0,-4.01464,1.51971,-2.35535\H,0,-4.21395,3.21232,-2.30653\N,
 0,-1.78651,3.80562,-2.76124\C,0,-2.29534,2.5895,-2.67312\N,0,-1.56255,
 1.43659,-2.81917\H,0,-2.03539,0.54979,-2.73568\C,0,-0.19628,1.38792,-3
 .07762\O,0,0.37024,0.29396,-3.19187\C,0,0.3644,2.68678,-3.17499\N,0,1.
 67072,3.08779,-3.41915\C,0,1.61752,4.39202,-3.4005\H,0,2.47236,5.05068
 ,-3.55767\H,0,0.10786,6.75188,-3.93018\H,0,-1.06294,6.31568,-2.8814\H,
 0,0.41083,6.74131,-2.32658\H,0,-5.08501,-3.51718,-2.84652\H,0,-4.54811
 ,-3.70642,-1.17902\H,0,-4.68904,-2.09465,-1.88164\H,0,-0.72608,-5.4329
 4,-3.5365\C,0,-1.17424,-4.47211,-3.28316\O,0,0.78226,-3.22275,-3.77132
 \C,0,-0.38987,-3.28097,-3.40052\H,0,-0.53082,-1.25789,-3.12554\N,0,-1.
 05245,-2.12028,-3.05546\O,0,-2.85025,-0.93056,-2.34158\C,0,-2.35035,-2
 .00513,-2.6245\H,0,-3.08166,-5.26783,-2.75932\C,0,-2.44301,-4.39193,-2
 .86554\C,0,-4.43229,-3.1244,-2.08118\N,0,-3.04148,-3.19759,-2.5373\H,0
 ,-7.73483,-1.49381,-4.07243\H,0,-6.62479,-0.5748,-3.30736\H,0,-7.02851
 ,-2.03716,-2.70521\H,0,-1.02321,-2.64531,-7.02094\H,0,-2.20149,-3.8729
 ,-6.89945\N,0,-1.91494,-2.94025,-6.67748\C,0,-2.68837,-2.1268,-5.95549
 \C,0,-4.63412,-1.53988,-4.71802\N,0,-4.22355,-0.29252,-4.43526\H,0,-2.
 61393,0.92784,-4.78234\C,0,-3.02325,-0.06486,-4.96473\N,0,-2.247,-0.87
 828,-5.68818\H,0,-6.59985,-4.1066,-4.72108\C,0,-5.77837,-3.40454,-4.86
 678\N,0,-4.68311,-3.66774,-5.53671\C,0,-3.9489,-2.49378,-5.45018\C,0,-
 6.88648,-1.51021,-3.54326\N,0,-5.81565,-2.1349,-4.34395\\Version=EM64L
 -G16RevA.03\State=1-A\HF=-2048.73037\RMSD=7.459e-09\Dipole=-3.8124661,
 -0.393825,0.3729453\Quadrupole=-2.4328561,21.193045,-18.7601888,34.040
 5522,-20.1116779,-2.7995134\PG=C01 [X(C23H27N17O3)]\\@


 CHARLIE BROWN.."I CAN'T GET THAT STUPID KITE IN THE
 AIR... I CAN'T... I C A N N O T..."
 LUCY.."OH COME NOW CHARLIE BROWN...THAT'S NO WAY TO TALK...
 THE TROUBLE WITH YOU IS YOU DON'T BELIEVE IN YOURSELF... YOU
 DON'T BELIEVE IN YOUR OWN ABILITIES...  YOU'VE GOT TO SAY TO
 YOURSELF...'I BELIEVE I CAN FLY THIS KITE.'... GO AHEAD SAY
 IT...."
 CHARLIE BROWN.."I BELIEVE THAT I CAN FLY THIS STUPID
 KITE.....I BELIEVE THAT I CAN FLY THIS KITE........
 I  A C T U A L L Y  B E L I E V E  T H A T  I  C A N ******"
 LUCY.."I'LL BET YOU TEN-TO-ONE YOU'RE WRONG......."    SCHULZ
 Job cpu time:       0 days  6 hours 31 minutes  1.4 seconds.
 Elapsed time:       0 days  0 hours 12 minutes 35.7 seconds.
 File lengths (MBytes):  RWF=    298 Int=      0 D2E=      0 Chk=     33 Scr=      1
 Normal termination of Gaussian 16 at Sat Jan 20 13:53:38 2018.
