 Entering Gaussian System, Link 0=g16
 Input=str25.-10.0.5.com
 Output=str25.-10.0.5.log
 Initial command:
 /share/apps/g16/l1.exe "/state/partition1/scr/Gau-6699.inp" -scrdir="/state/partition1/scr/"
 Entering Link 1 = /share/apps/g16/l1.exe PID=      6700.
  
 Copyright (c) 1988,1990,1992,1993,1995,1998,2003,2009,2016,
            Gaussian, Inc.  All Rights Reserved.
  
 This is part of the Gaussian(R) 16 program.  It is based on
 the Gaussian(R) 09 system (copyright 2009, Gaussian, Inc.),
 the Gaussian(R) 03 system (copyright 2003, Gaussian, Inc.),
 the Gaussian(R) 98 system (copyright 1998, Gaussian, Inc.),
 the Gaussian(R) 94 system (copyright 1995, Gaussian, Inc.),
 the Gaussian 92(TM) system (copyright 1992, Gaussian, Inc.),
 the Gaussian 90(TM) system (copyright 1990, Gaussian, Inc.),
 the Gaussian 88(TM) system (copyright 1988, Gaussian, Inc.),
 the Gaussian 86(TM) system (copyright 1986, Carnegie Mellon
 University), and the Gaussian 82(TM) system (copyright 1983,
 Carnegie Mellon University). Gaussian is a federally registered
 trademark of Gaussian, Inc.
  
 This software contains proprietary and confidential information,
 including trade secrets, belonging to Gaussian, Inc.
  
 This software is provided under written license and may be
 used, copied, transmitted, or stored only in accord with that
 written license.
  
 The following legend is applicable only to US Government
 contracts under FAR:
  
                    RESTRICTED RIGHTS LEGEND
  
 Use, reproduction and disclosure by the US Government is
 subject to restrictions as set forth in subparagraphs (a)
 and (c) of the Commercial Computer Software - Restricted
 Rights clause in FAR 52.227-19.
  
 Gaussian, Inc.
 340 Quinnipiac St., Bldg. 40, Wallingford CT 06492
  
  
 ---------------------------------------------------------------
 Warning -- This program may not be used in any manner that
 competes with the business of Gaussian, Inc. or will provide
 assistance to any competitor of Gaussian, Inc.  The licensee
 of this program is prohibited from giving any competitor of
 Gaussian, Inc. access to this program.  By using this program,
 the user acknowledges that Gaussian, Inc. is engaged in the
 business of creating and licensing software in the field of
 computational chemistry and represents and warrants to the
 licensee that it is not a competitor of Gaussian, Inc. and that
 it will not use this program in any manner prohibited above.
 ---------------------------------------------------------------
  

 Cite this work as:
 Gaussian 16, Revision A.03,
 M. J. Frisch, G. W. Trucks, H. B. Schlegel, G. E. Scuseria, 
 M. A. Robb, J. R. Cheeseman, G. Scalmani, V. Barone, 
 G. A. Petersson, H. Nakatsuji, X. Li, M. Caricato, A. V. Marenich, 
 J. Bloino, B. G. Janesko, R. Gomperts, B. Mennucci, H. P. Hratchian, 
 J. V. Ortiz, A. F. Izmaylov, J. L. Sonnenberg, D. Williams-Young, 
 F. Ding, F. Lipparini, F. Egidi, J. Goings, B. Peng, A. Petrone, 
 T. Henderson, D. Ranasinghe, V. G. Zakrzewski, J. Gao, N. Rega, 
 G. Zheng, W. Liang, M. Hada, M. Ehara, K. Toyota, R. Fukuda, 
 J. Hasegawa, M. Ishida, T. Nakajima, Y. Honda, O. Kitao, H. Nakai, 
 T. Vreven, K. Throssell, J. A. Montgomery, Jr., J. E. Peralta, 
 F. Ogliaro, M. J. Bearpark, J. J. Heyd, E. N. Brothers, K. N. Kudin, 
 V. N. Staroverov, T. A. Keith, R. Kobayashi, J. Normand, 
 K. Raghavachari, A. P. Rendell, J. C. Burant, S. S. Iyengar, 
 J. Tomasi, M. Cossi, J. M. Millam, M. Klene, C. Adamo, R. Cammi, 
 J. W. Ochterski, R. L. Martin, K. Morokuma, O. Farkas, 
 J. B. Foresman, and D. J. Fox, Gaussian, Inc., Wallingford CT, 2016.
 
 ******************************************
 Gaussian 16:  EM64L-G16RevA.03 25-Dec-2016
                20-Jan-2018 
 ******************************************
 %nprocshared=32
 Will use up to   32 processors via shared memory.
 %mem=32GB
 %chk=allatoms_t.chk
 ---------------------------------------
 #p wb97xd/cc-pvdz sp scf=(maxcycles=20)
 ---------------------------------------
 1/38=1,172=1/1;
 2/12=2,17=6,18=5,40=1/2;
 3/5=16,11=2,25=1,30=1,74=-58/1,2,3;
 4//1;
 5/5=2,7=20,38=5/2;
 6/7=2,8=2,9=2,10=2,28=1/1;
 99/5=1,9=1/99;
 Leave Link    1 at Sat Jan 20 09:54:20 2018, MaxMem=  4294967296 cpu:               2.8 elap:               0.1
 (Enter /share/apps/g16/l101.exe)
 ------------------
 Base pair stacking
 ------------------
 Symbolic Z-matrix:
 Charge =  0 Multiplicity = 1
 N                     1.98253   4.07356  -6.68555 
 C                     2.20953   5.53137  -6.64998 
 C                     1.05031   2.0838   -6.58989 
 N                     2.38327   1.87282  -6.91148 
 C                     2.89155   3.08002  -6.95624 
 H                     3.93368   3.30589  -7.18403 
 N                    -1.22703   1.73749  -6.08319 
 C                    -1.32742   3.06668  -5.97955 
 H                    -2.31906   3.43985  -5.72723 
 N                    -0.39118   3.99974  -6.14004 
 C                     0.78838   3.43533  -6.44747 
 C                    -0.02688   1.20056  -6.39372 
 N                     0.07534  -0.12606  -6.49763 
 H                     0.94421  -0.56688  -6.7256 
 H                    -0.71266  -0.7242   -6.35123 
 H                     2.53076   5.84199  -7.54469 
 H                     1.35456   5.99717  -6.42373 
 H                     2.89792   5.74682  -5.95738 
 N                     0.37929   4.3921   -3.19041 
 C                    -0.4441    3.29649  -3.09177 
 C                    -0.06576   5.79985  -3.16118 
 N                    -3.62494   1.94594  -2.74537 
 H                    -4.03878   1.0376   -2.69148 
 H                    -4.24343   2.73028  -2.69063 
 N                    -1.78725   3.3217   -2.95267 
 C                    -2.30024   2.10603  -2.88479 
 N                    -1.5565    0.95262  -2.94809 
 H                    -2.03361   0.06622  -2.88789 
 C                    -0.1734    0.90292  -3.09103 
 O                     0.40193  -0.19141  -3.13757 
 C                     0.39192   2.20129  -3.16534 
 N                     1.71357   2.60128  -3.30733 
 C                     1.65749   3.90549  -3.31721 
 H                     2.52167   4.56347  -3.41483 
 H                     0.1944    6.2512   -4.01406 
 H                    -1.05911   5.83109  -3.05846 
 H                     0.36287   6.27075  -2.39089 
 H                    -5.0587   -4.01029  -3.17708 
 H                    -4.66223  -4.16759  -1.46749 
 H                    -4.74606  -2.56931  -2.20899 
 H                    -0.65523  -5.92659  -3.4666 
 C                    -1.12404  -4.9625   -3.26917 
 O                     0.86485  -3.71701  -3.61581 
 C                    -0.33402  -3.77159  -3.34281 
 H                    -0.49972  -1.74422  -3.11784 
 N                    -1.02436  -2.60659  -3.07552 
 O                    -2.87673  -1.40886  -2.53573 
 C                    -2.35376  -2.48708  -2.75622 
 H                    -3.06751  -5.75365  -2.89126 
 C                    -2.42326  -4.87812  -2.96011 
 C                    -4.47239  -3.60184  -2.36746 
 N                    -3.04836  -3.6796   -2.70486 
 H                    -7.85462  -2.45285  -4.98845 
 H                    -6.87841  -1.46557  -4.13147 
 H                    -7.35931  -2.89007  -3.49616 
 H                    -0.768    -3.69065  -6.80866 
 H                    -1.94352  -4.92654  -6.78001 
 N                    -1.6995   -3.97631  -6.58319 
 C                    -2.57802  -3.12858  -6.04399 
 C                    -4.69177  -2.49121  -5.15657 
 N                    -4.33628  -1.22084  -4.90315 
 H                    -2.70029  -0.00035  -5.08904 
 C                    -3.07126  -1.00983  -5.26107 
 N                    -2.18974  -1.85759  -5.80127 
 H                    -6.61865  -5.0845   -5.27546 
 C                    -5.78894  -4.38043  -5.34487 
 N                    -4.60354  -4.67038  -5.82281 
 C                    -3.89805  -3.48121  -5.70922 
 C                    -7.09572  -2.41909  -4.33811 
 N                    -5.91252  -3.07894  -4.92345 
 
 ITRead=  0  0  0  0  0  0  0  0  0  0  0  0  0  0  0  0  0  0  0  0
 ITRead=  0  0  0  0  0  0  0  0  0  0  0  0  0  0  0  0  0  0  0  0
 ITRead=  0  0  0  0  0  0  0  0  0  0  0  0  0  0  0  0  0  0  0  0
 ITRead=  0  0  0  0  0  0  0  0  0  0
 MicOpt= -1 -1 -1 -1 -1 -1 -1 -1 -1 -1 -1 -1 -1 -1 -1 -1 -1 -1 -1 -1
 MicOpt= -1 -1 -1 -1 -1 -1 -1 -1 -1 -1 -1 -1 -1 -1 -1 -1 -1 -1 -1 -1
 MicOpt= -1 -1 -1 -1 -1 -1 -1 -1 -1 -1 -1 -1 -1 -1 -1 -1 -1 -1 -1 -1
 MicOpt= -1 -1 -1 -1 -1 -1 -1 -1 -1 -1
 NAtoms=     70 NQM=       70 NQMF=       0 NMMI=      0 NMMIF=      0
                NMic=       0 NMicF=      0.
                    Isotopes and Nuclear Properties:
 (Nuclear quadrupole moments (NQMom) in fm**2, nuclear magnetic moments (NMagM)
  in nuclear magnetons)

  Atom         1           2           3           4           5           6           7           8           9          10
 IAtWgt=          14          12          12          14          12           1          14          12           1          14
 AtmWgt=  14.0030740  12.0000000  12.0000000  14.0030740  12.0000000   1.0078250  14.0030740  12.0000000   1.0078250  14.0030740
 NucSpn=           2           0           0           2           0           1           2           0           1           2
 AtZEff=  -0.0000000  -0.0000000  -0.0000000  -0.0000000  -0.0000000  -0.0000000  -0.0000000  -0.0000000  -0.0000000  -0.0000000
 NQMom=    2.0440000   0.0000000   0.0000000   2.0440000   0.0000000   0.0000000   2.0440000   0.0000000   0.0000000   2.0440000
 NMagM=    0.4037610   0.0000000   0.0000000   0.4037610   0.0000000   2.7928460   0.4037610   0.0000000   2.7928460   0.4037610
 AtZNuc=   7.0000000   6.0000000   6.0000000   7.0000000   6.0000000   1.0000000   7.0000000   6.0000000   1.0000000   7.0000000

  Atom        11          12          13          14          15          16          17          18          19          20
 IAtWgt=          12          12          14           1           1           1           1           1          14          12
 AtmWgt=  12.0000000  12.0000000  14.0030740   1.0078250   1.0078250   1.0078250   1.0078250   1.0078250  14.0030740  12.0000000
 NucSpn=           0           0           2           1           1           1           1           1           2           0
 AtZEff=  -0.0000000  -0.0000000  -0.0000000  -0.0000000  -0.0000000  -0.0000000  -0.0000000  -0.0000000  -0.0000000  -0.0000000
 NQMom=    0.0000000   0.0000000   2.0440000   0.0000000   0.0000000   0.0000000   0.0000000   0.0000000   2.0440000   0.0000000
 NMagM=    0.0000000   0.0000000   0.4037610   2.7928460   2.7928460   2.7928460   2.7928460   2.7928460   0.4037610   0.0000000
 AtZNuc=   6.0000000   6.0000000   7.0000000   1.0000000   1.0000000   1.0000000   1.0000000   1.0000000   7.0000000   6.0000000

  Atom        21          22          23          24          25          26          27          28          29          30
 IAtWgt=          12          14           1           1          14          12          14           1          12          16
 AtmWgt=  12.0000000  14.0030740   1.0078250   1.0078250  14.0030740  12.0000000  14.0030740   1.0078250  12.0000000  15.9949146
 NucSpn=           0           2           1           1           2           0           2           1           0           0
 AtZEff=  -0.0000000  -0.0000000  -0.0000000  -0.0000000  -0.0000000  -0.0000000  -0.0000000  -0.0000000  -0.0000000  -0.0000000
 NQMom=    0.0000000   2.0440000   0.0000000   0.0000000   2.0440000   0.0000000   2.0440000   0.0000000   0.0000000   0.0000000
 NMagM=    0.0000000   0.4037610   2.7928460   2.7928460   0.4037610   0.0000000   0.4037610   2.7928460   0.0000000   0.0000000
 AtZNuc=   6.0000000   7.0000000   1.0000000   1.0000000   7.0000000   6.0000000   7.0000000   1.0000000   6.0000000   8.0000000

  Atom        31          32          33          34          35          36          37          38          39          40
 IAtWgt=          12          14          12           1           1           1           1           1           1           1
 AtmWgt=  12.0000000  14.0030740  12.0000000   1.0078250   1.0078250   1.0078250   1.0078250   1.0078250   1.0078250   1.0078250
 NucSpn=           0           2           0           1           1           1           1           1           1           1
 AtZEff=  -0.0000000  -0.0000000  -0.0000000  -0.0000000  -0.0000000  -0.0000000  -0.0000000  -0.0000000  -0.0000000  -0.0000000
 NQMom=    0.0000000   2.0440000   0.0000000   0.0000000   0.0000000   0.0000000   0.0000000   0.0000000   0.0000000   0.0000000
 NMagM=    0.0000000   0.4037610   0.0000000   2.7928460   2.7928460   2.7928460   2.7928460   2.7928460   2.7928460   2.7928460
 AtZNuc=   6.0000000   7.0000000   6.0000000   1.0000000   1.0000000   1.0000000   1.0000000   1.0000000   1.0000000   1.0000000

  Atom        41          42          43          44          45          46          47          48          49          50
 IAtWgt=           1          12          16          12           1          14          16          12           1          12
 AtmWgt=   1.0078250  12.0000000  15.9949146  12.0000000   1.0078250  14.0030740  15.9949146  12.0000000   1.0078250  12.0000000
 NucSpn=           1           0           0           0           1           2           0           0           1           0
 AtZEff=  -0.0000000  -0.0000000  -0.0000000  -0.0000000  -0.0000000  -0.0000000  -0.0000000  -0.0000000  -0.0000000  -0.0000000
 NQMom=    0.0000000   0.0000000   0.0000000   0.0000000   0.0000000   2.0440000   0.0000000   0.0000000   0.0000000   0.0000000
 NMagM=    2.7928460   0.0000000   0.0000000   0.0000000   2.7928460   0.4037610   0.0000000   0.0000000   2.7928460   0.0000000
 AtZNuc=   1.0000000   6.0000000   8.0000000   6.0000000   1.0000000   7.0000000   8.0000000   6.0000000   1.0000000   6.0000000

  Atom        51          52          53          54          55          56          57          58          59          60
 IAtWgt=          12          14           1           1           1           1           1          14          12          12
 AtmWgt=  12.0000000  14.0030740   1.0078250   1.0078250   1.0078250   1.0078250   1.0078250  14.0030740  12.0000000  12.0000000
 NucSpn=           0           2           1           1           1           1           1           2           0           0
 AtZEff=  -0.0000000  -0.0000000  -0.0000000  -0.0000000  -0.0000000  -0.0000000  -0.0000000  -0.0000000  -0.0000000  -0.0000000
 NQMom=    0.0000000   2.0440000   0.0000000   0.0000000   0.0000000   0.0000000   0.0000000   2.0440000   0.0000000   0.0000000
 NMagM=    0.0000000   0.4037610   2.7928460   2.7928460   2.7928460   2.7928460   2.7928460   0.4037610   0.0000000   0.0000000
 AtZNuc=   6.0000000   7.0000000   1.0000000   1.0000000   1.0000000   1.0000000   1.0000000   7.0000000   6.0000000   6.0000000

  Atom        61          62          63          64          65          66          67          68          69          70
 IAtWgt=          14           1          12          14           1          12          14          12          12          14
 AtmWgt=  14.0030740   1.0078250  12.0000000  14.0030740   1.0078250  12.0000000  14.0030740  12.0000000  12.0000000  14.0030740
 NucSpn=           2           1           0           2           1           0           2           0           0           2
 AtZEff=  -0.0000000  -0.0000000  -0.0000000  -0.0000000  -0.0000000  -0.0000000  -0.0000000  -0.0000000  -0.0000000  -0.0000000
 NQMom=    2.0440000   0.0000000   0.0000000   2.0440000   0.0000000   0.0000000   2.0440000   0.0000000   0.0000000   2.0440000
 NMagM=    0.4037610   2.7928460   0.0000000   0.4037610   2.7928460   0.0000000   0.4037610   0.0000000   0.0000000   0.4037610
 AtZNuc=   7.0000000   1.0000000   6.0000000   7.0000000   1.0000000   6.0000000   7.0000000   6.0000000   6.0000000   7.0000000
 Leave Link  101 at Sat Jan 20 09:54:20 2018, MaxMem=  4294967296 cpu:               6.5 elap:               0.2
 (Enter /share/apps/g16/l202.exe)
 Stoichiometry    C23H27N17O3
 Framework group  C1[X(C23H27N17O3)]
 Deg. of freedom   204
 Full point group                 C1      NOp   1
 Largest Abelian subgroup         C1      NOp   1
 Largest concise Abelian subgroup C1      NOp   1
                         Standard orientation:                         
 ---------------------------------------------------------------------
 Center     Atomic      Atomic             Coordinates (Angstroms)
 Number     Number       Type             X           Y           Z
 ---------------------------------------------------------------------
      1          7           0        5.477307   -1.313897   -1.231017
      2          6           0        6.816287   -0.706068   -1.356247
      3          6           0        3.300380   -1.624889   -1.190980
      4          7           0        3.873254   -2.850970   -0.885602
      5          6           0        5.161843   -2.614539   -0.921943
      6          1           0        5.934526   -3.359450   -0.729566
      7          7           0        1.734255    0.083466   -1.628845
      8          6           0        2.782571    0.893787   -1.807674
      9          1           0        2.536080    1.924121   -2.060510
     10          7           0        4.083549    0.623734   -1.721478
     11          6           0        4.276587   -0.667745   -1.406433
     12          6           0        1.961688   -1.210142   -1.312722
     13          7           0        0.916535   -2.020584   -1.133814
     14          1           0        1.037891   -2.985600   -0.898775
     15          1           0       -0.022887   -1.690955   -1.228571
     16          1           0        7.330852   -1.174937   -2.074275
     17          1           0        6.723495    0.261018   -1.591336
     18          1           0        7.305647   -0.790903   -0.488305
     19          7           0        4.560546    1.568879    1.164187
     20          6           0        3.190166    1.644589    1.097925
     21          6           0        5.495110    2.639038    0.761654
     22          7           0        0.310300    3.420217    0.313554
     23          1           0       -0.678075    3.274197    0.345841
     24          1           0        0.627316    4.304266   -0.030938
     25          7           0        2.472930    2.700834    0.657521
     26          6           0        1.172613    2.473664    0.713991
     27          7           0        0.615295    1.302391    1.166791
     28          1           0       -0.389483    1.216809    1.174534
     29          6           0        1.333977    0.202517    1.624657
     30          8           0        0.733571   -0.807545    2.011976
     31          6           0        2.732336    0.431600    1.569998
     32          7           0        3.793926   -0.389123    1.925459
     33          6           0        4.855581    0.325631    1.668124
     34          1           0        5.881800   -0.006990    1.827851
     35          1           0        6.090615    2.306472    0.031190
     36          1           0        4.975216    3.426684    0.433635
     37          1           0        6.050776    2.911222    1.546491
     38          1           0       -5.407998    1.180182    0.358510
     39          1           0       -5.480433    1.564558    2.076543
     40          1           0       -4.121405    2.129000    1.104022
     41          1           0       -4.605639   -3.162477    2.267465
     42          6           0       -4.070319   -2.231265    2.081697
     43          8           0       -1.922337   -3.190499    2.386873
     44          6           0       -2.640512   -2.221981    2.139900
     45          1           0       -1.054414   -0.947256    1.921581
     46          7           0       -2.063148   -0.993512    1.889398
     47          8           0       -2.110969    1.221728    1.391771
     48          6           0       -2.710411    0.181395    1.599251
     49          1           0       -5.816511   -1.055162    1.744940
     50          6           0       -4.729735   -1.101210    1.801063
     51          6           0       -4.822948    1.322046    1.254984
     52          7           0       -4.087988    0.091685    1.561240
     53          1           0       -5.451455    3.232440   -2.692752
     54          1           0       -4.175805    3.411258   -1.691321
     55          1           0       -5.684949    3.302949   -1.079082
     56          1           0       -2.492934   -3.395205   -1.147770
     57          1           0       -4.164577   -3.166030   -1.399132
     58          7           0       -3.255652   -2.763262   -1.285758
     59          6           0       -3.070041   -1.442001   -1.317340
     60          6           0       -3.759395    0.826612   -1.517048
     61          7           0       -2.527557    1.339400   -1.361940
     62          1           0       -0.605742    0.696160   -1.056186
     63          6           0       -1.635074    0.366326   -1.190158
     64          7           0       -1.818998   -0.957586   -1.158211
     65          1           0       -6.959175    0.833882   -1.979116
     66          6           0       -5.915582    0.562892   -1.816549
     67          7           0       -5.474319   -0.665540   -1.698597
     68          6           0       -4.108622   -0.512596   -1.508276
     69          6           0       -5.072160    2.982916   -1.801750
     70          7           0       -4.931791    1.516270   -1.716701
 ---------------------------------------------------------------------
 Rotational constants (GHZ):           0.1651422           0.0540438           0.0518017
 Leave Link  202 at Sat Jan 20 09:54:20 2018, MaxMem=  4294967296 cpu:               0.3 elap:               0.0
 (Enter /share/apps/g16/l301.exe)
 Standard basis: CC-pVDZ (5D, 7F)
 Ernie: Thresh=  0.10000D-02 Tol=  0.10000D-05 Strict=F.
 Ernie:  86 primitive shells out of 1081 were deleted.
 There are   780 symmetry adapted cartesian basis functions of A   symmetry.
 There are   737 symmetry adapted basis functions of A   symmetry.
   737 basis functions,  1608 primitive gaussians,   780 cartesian basis functions
   154 alpha electrons      154 beta electrons
       nuclear repulsion energy      5612.3248060160 Hartrees.
 IExCor= 4639 DFT=T Ex+Corr=wB97XD ExCW=0 ScaHFX=  1.000000
 ScaDFX=  1.000000  1.000000  1.000000  1.000000 ScalE2=  1.000000  1.000000
 IRadAn=      5 IRanWt=     -1 IRanGd=            0 ICorTp=0 IEmpDi=121
 HFx  wShort=  0.000000 wLong=  0.200000 cFull=  0.222036 cShort=  0.000000 cLong=  0.777964
 DFx  wShort=  0.000000 wLong=  0.200000 cFull=  0.000000 cShort=  0.000000 cLong=  1.000000
 NAtoms=   70 NActive=   70 NUniq=   70 SFac= 1.00D+00 NAtFMM=   60 NAOKFM=T Big=T
 Integral buffers will be    131072 words long.
 Raffenetti 2 integral format.
 Two-electron integral symmetry is turned on.
 R6Disp:  Grimme-D2 Dispersion energy=       -0.0793983367 Hartrees.
 Nuclear repulsion after empirical dispersion term =     5612.2454076794 Hartrees.
 Leave Link  301 at Sat Jan 20 09:54:21 2018, MaxMem=  4294967296 cpu:               2.1 elap:               0.1
 (Enter /share/apps/g16/l302.exe)
 NPDir=0 NMtPBC=     1 NCelOv=     1 NCel=       1 NClECP=     1 NCelD=      1
         NCelK=      1 NCelE2=     1 NClLst=     1 CellRange=     0.0.
 One-electron integrals computed using PRISM.
 One-electron integral symmetry used in STVInt
 NBasis=   737 RedAO= T EigKep=  6.61D-04  NBF=   737
 NBsUse=   737 1.00D-06 EigRej= -1.00D+00 NBFU=   737
 Precomputing XC quadrature grid using
 IXCGrd= 4 IRadAn=           5 IRanWt=          -1 IRanGd=           0 AccXCQ= 0.00D+00.
 Generated NRdTot=       0 NPtTot=           0 NUsed=           0 NTot=          32
 NSgBfM=   770   770   770   770   770 MxSgAt=    70 MxSgA2=    70.
 Leave Link  302 at Sat Jan 20 09:54:25 2018, MaxMem=  4294967296 cpu:             135.7 elap:               4.3
 (Enter /share/apps/g16/l303.exe)
 DipDrv:  MaxL=1.
 Leave Link  303 at Sat Jan 20 09:54:25 2018, MaxMem=  4294967296 cpu:              13.0 elap:               0.5
 (Enter /share/apps/g16/l401.exe)
 ExpMin= 1.22D-01 ExpMax= 1.17D+04 ExpMxC= 4.01D+02 IAcc=3 IRadAn=         5 AccDes= 0.00D+00
 Harris functional with IExCor= 4639 and IRadAn=       5 diagonalized for initial guess.
 HarFok:  IExCor= 4639 AccDes= 0.00D+00 IRadAn=         5 IDoV= 1 UseB2=F ITyADJ=14
 ICtDFT=  3500011 ScaDFX=  1.000000  1.000000  1.000000  1.000000
 FoFCou: FMM=F IPFlag=           0 FMFlag=      100000 FMFlg1=        2001
         NFxFlg=           0 DoJE=T BraDBF=F KetDBF=T FulRan=T
         wScrn=  0.000000 ICntrl=       500 IOpCl=  0 I1Cent=   200000004 NGrid=           0
         NMat0=    1 NMatS0=      1 NMatT0=    0 NMatD0=    1 NMtDS0=    0 NMtDT0=    0
 Petite list used in FoFCou.
 Harris En= -1963.87766052266    
 JPrj=0 DoOrth=F DoCkMO=F.
 Leave Link  401 at Sat Jan 20 09:54:38 2018, MaxMem=  4294967296 cpu:             412.5 elap:              12.9
 (Enter /share/apps/g16/l502.exe)
 Integral symmetry usage will be decided dynamically.
 Closed shell SCF:
 Using DIIS extrapolation, IDIIS=  1040.
 NGot=  4294967296 LenX=  4293717438 LenY=  4293108258
 Requested convergence on RMS density matrix=1.00D-08 within  20 cycles.
 Requested convergence on MAX density matrix=1.00D-06.
 Requested convergence on             energy=1.00D-06.
 No special actions if energy rises.
 Fock matrices will be formed incrementally for  20 cycles.
 Integral accuracy reduced to 1.0D-05 until final iterations.

 Cycle   1  Pass 0  IDiag  1:
 FoFJK:  IHMeth= 1 ICntrl=       0 DoSepK=T KAlg= 0 I1Cent=           0 FoldK=F
 IRaf=         1 NMat=       1 IRICut=       1 DoRegI=T DoRafI=F ISym2E= 0 IDoP0=0 IntGTp=1.
 FoFCou: FMM=T IPFlag=           0 FMFlag=      100000 FMFlg1=        2001
         NFxFlg=           0 DoJE=T BraDBF=F KetDBF=F FulRan=T
         wScrn=  0.000000 ICntrl=       500 IOpCl=  0 I1Cent=           0 NGrid=           0
         NMat0=    1 NMatS0=      1 NMatT0=    0 NMatD0=    1 NMtDS0=    0 NMtDT0=    0
 Symmetry not used in FoFCou.
 FMM levels:  10  Number of levels for PrismC:   9
 E= -2048.31316713426    
 DIIS: error= 2.11D-02 at cycle   1 NSaved=   1.
 NSaved= 1 IEnMin= 1 EnMin= -2048.31316713426     IErMin= 1 ErrMin= 2.11D-02
 ErrMax= 2.11D-02  0.00D+00 EMaxC= 1.00D-01 BMatC= 8.32D-01 BMatP= 8.32D-01
 IDIUse=3 WtCom= 7.89D-01 WtEn= 2.11D-01
 Coeff-Com:  0.100D+01
 Coeff-En:   0.100D+01
 Coeff:      0.100D+01
 Gap=     0.261 Goal=   None    Shift=    0.000
 GapD=    0.261 DampG=1.000 DampE=0.500 DampFc=0.5000 IDamp=-1.
 Damping current iteration by 5.00D-01
 RMSDP=1.58D-03 MaxDP=1.30D-01              OVMax= 2.08D-01

 Cycle   2  Pass 0  IDiag  1:
 RMSU=  7.91D-04    CP:  9.98D-01
 E= -2048.50913454372     Delta-E=       -0.195967409457 Rises=F Damp=T
 DIIS: error= 1.18D-02 at cycle   2 NSaved=   2.
 NSaved= 2 IEnMin= 2 EnMin= -2048.50913454372     IErMin= 2 ErrMin= 1.18D-02
 ErrMax= 1.18D-02  0.00D+00 EMaxC= 1.00D-01 BMatC= 1.45D-01 BMatP= 8.32D-01
 IDIUse=3 WtCom= 8.82D-01 WtEn= 1.18D-01
 Coeff-Com: -0.194D+00 0.119D+01
 Coeff-En:   0.000D+00 0.100D+01
 Coeff:     -0.171D+00 0.117D+01
 Gap=     0.314 Goal=   None    Shift=    0.000
 RMSDP=5.97D-04 MaxDP=3.55D-02 DE=-1.96D-01 OVMax= 1.25D-01

 Cycle   3  Pass 0  IDiag  1:
 RMSU=  5.86D-04    CP:  9.94D-01  1.13D+00
 E= -2048.68629217951     Delta-E=       -0.177157635786 Rises=F Damp=F
 DIIS: error= 7.19D-03 at cycle   3 NSaved=   3.
 NSaved= 3 IEnMin= 3 EnMin= -2048.68629217951     IErMin= 3 ErrMin= 7.19D-03
 ErrMax= 7.19D-03  0.00D+00 EMaxC= 1.00D-01 BMatC= 6.64D-02 BMatP= 1.45D-01
 IDIUse=3 WtCom= 9.28D-01 WtEn= 7.19D-02
 Coeff-Com: -0.234D+00 0.557D+00 0.677D+00
 Coeff-En:   0.000D+00 0.000D+00 0.100D+01
 Coeff:     -0.217D+00 0.517D+00 0.700D+00
 Gap=     0.286 Goal=   None    Shift=    0.000
 RMSDP=3.71D-04 MaxDP=3.39D-02 DE=-1.77D-01 OVMax= 6.90D-02

 Cycle   4  Pass 0  IDiag  1:
 RMSU=  2.09D-04    CP:  9.94D-01  1.42D+00  6.59D-01
 E= -2048.73604022089     Delta-E=       -0.049748041383 Rises=F Damp=F
 DIIS: error= 2.65D-03 at cycle   4 NSaved=   4.
 NSaved= 4 IEnMin= 4 EnMin= -2048.73604022089     IErMin= 4 ErrMin= 2.65D-03
 ErrMax= 2.65D-03  0.00D+00 EMaxC= 1.00D-01 BMatC= 9.72D-03 BMatP= 6.64D-02
 IDIUse=3 WtCom= 9.73D-01 WtEn= 2.65D-02
 Coeff-Com: -0.972D-01 0.188D+00 0.377D+00 0.531D+00
 Coeff-En:   0.000D+00 0.000D+00 0.715D-01 0.928D+00
 Coeff:     -0.947D-01 0.183D+00 0.369D+00 0.542D+00
 Gap=     0.288 Goal=   None    Shift=    0.000
 RMSDP=1.31D-04 MaxDP=1.14D-02 DE=-4.97D-02 OVMax= 1.56D-02

 Cycle   5  Pass 0  IDiag  1:
 RMSU=  6.26D-05    CP:  9.94D-01  1.40D+00  7.94D-01  6.18D-01
 E= -2048.74408487146     Delta-E=       -0.008044650575 Rises=F Damp=F
 DIIS: error= 6.29D-04 at cycle   5 NSaved=   5.
 NSaved= 5 IEnMin= 5 EnMin= -2048.74408487146     IErMin= 5 ErrMin= 6.29D-04
 ErrMax= 6.29D-04  0.00D+00 EMaxC= 1.00D-01 BMatC= 2.99D-04 BMatP= 9.72D-03
 IDIUse=3 WtCom= 9.94D-01 WtEn= 6.29D-03
 Coeff-Com: -0.257D-01 0.443D-01 0.123D+00 0.239D+00 0.620D+00
 Coeff-En:   0.000D+00 0.000D+00 0.000D+00 0.000D+00 0.100D+01
 Coeff:     -0.255D-01 0.440D-01 0.122D+00 0.237D+00 0.622D+00
 Gap=     0.288 Goal=   None    Shift=    0.000
 RMSDP=2.71D-05 MaxDP=1.64D-03 DE=-8.04D-03 OVMax= 3.34D-03

 Failed to achieve initial convergence to 1.0D-08 in  6 cycles.
 Switch to full accuracy anyway.
 Cycle   6  Pass 1  IDiag  1:
 E= -2048.74423648801     Delta-E=       -0.000151616542 Rises=F Damp=F
 DIIS: error= 2.39D-04 at cycle   1 NSaved=   1.
 NSaved= 1 IEnMin= 1 EnMin= -2048.74423648801     IErMin= 1 ErrMin= 2.39D-04
 ErrMax= 2.39D-04  0.00D+00 EMaxC= 1.00D-01 BMatC= 7.81D-05 BMatP= 7.81D-05
 IDIUse=3 WtCom= 9.98D-01 WtEn= 2.39D-03
 Coeff-Com:  0.100D+01
 Coeff-En:   0.100D+01
 Coeff:      0.100D+01
 Gap=     0.288 Goal=   None    Shift=    0.000
 RMSDP=2.71D-05 MaxDP=1.64D-03 DE=-1.52D-04 OVMax= 2.20D-03

 Cycle   7  Pass 1  IDiag  1:
 RMSU=  1.17D-04    CP:  1.00D+00
 E= -2048.74429064444     Delta-E=       -0.000054156431 Rises=F Damp=F
 DIIS: error= 2.53D-04 at cycle   2 NSaved=   2.
 NSaved= 2 IEnMin= 2 EnMin= -2048.74429064444     IErMin= 1 ErrMin= 2.39D-04
 ErrMax= 2.53D-04  0.00D+00 EMaxC= 1.00D-01 BMatC= 4.69D-05 BMatP= 7.81D-05
 IDIUse=3 WtCom= 9.97D-01 WtEn= 2.53D-03
 Coeff-Com:  0.415D+00 0.585D+00
 Coeff-En:   0.150D-01 0.985D+00
 Coeff:      0.414D+00 0.586D+00
 Gap=     0.288 Goal=   None    Shift=    0.000
 RMSDP=1.21D-05 MaxDP=9.21D-04 DE=-5.42D-05 OVMax= 1.70D-03

 Cycle   8  Pass 1  IDiag  1:
 RMSU=  1.18D-05    CP:  1.00D+00  1.02D+00
 E= -2048.74432565305     Delta-E=       -0.000035008616 Rises=F Damp=F
 DIIS: error= 9.77D-05 at cycle   3 NSaved=   3.
 NSaved= 3 IEnMin= 3 EnMin= -2048.74432565305     IErMin= 3 ErrMin= 9.77D-05
 ErrMax= 9.77D-05  0.00D+00 EMaxC= 1.00D-01 BMatC= 1.05D-05 BMatP= 4.69D-05
 IDIUse=1 WtCom= 1.00D+00 WtEn= 0.00D+00
 Coeff-Com: -0.190D-01 0.307D+00 0.712D+00
 Coeff:     -0.190D-01 0.307D+00 0.712D+00
 Gap=     0.288 Goal=   None    Shift=    0.000
 RMSDP=5.91D-06 MaxDP=4.17D-04 DE=-3.50D-05 OVMax= 6.31D-04

 Cycle   9  Pass 1  IDiag  1:
 RMSU=  3.99D-06    CP:  1.00D+00  1.05D+00  7.64D-01
 E= -2048.74433590551     Delta-E=       -0.000010252456 Rises=F Damp=F
 DIIS: error= 2.06D-05 at cycle   4 NSaved=   4.
 NSaved= 4 IEnMin= 4 EnMin= -2048.74433590551     IErMin= 4 ErrMin= 2.06D-05
 ErrMax= 2.06D-05  0.00D+00 EMaxC= 1.00D-01 BMatC= 5.54D-07 BMatP= 1.05D-05
 IDIUse=1 WtCom= 1.00D+00 WtEn= 0.00D+00
 Coeff-Com: -0.311D-01 0.859D-01 0.271D+00 0.674D+00
 Coeff:     -0.311D-01 0.859D-01 0.271D+00 0.674D+00
 Gap=     0.288 Goal=   None    Shift=    0.000
 RMSDP=1.50D-06 MaxDP=1.30D-04 DE=-1.03D-05 OVMax= 4.02D-04

 Cycle  10  Pass 1  IDiag  1:
 RMSU=  1.34D-06    CP:  1.00D+00  1.05D+00  8.00D-01  1.10D+00
 E= -2048.74433680853     Delta-E=       -0.000000903016 Rises=F Damp=F
 DIIS: error= 1.17D-05 at cycle   5 NSaved=   5.
 NSaved= 5 IEnMin= 5 EnMin= -2048.74433680853     IErMin= 5 ErrMin= 1.17D-05
 ErrMax= 1.17D-05  0.00D+00 EMaxC= 1.00D-01 BMatC= 1.27D-07 BMatP= 5.54D-07
 IDIUse=1 WtCom= 1.00D+00 WtEn= 0.00D+00
 Coeff-Com: -0.365D-02-0.548D-01-0.116D+00 0.206D+00 0.969D+00
 Coeff:     -0.365D-02-0.548D-01-0.116D+00 0.206D+00 0.969D+00
 Gap=     0.288 Goal=   None    Shift=    0.000
 RMSDP=1.25D-06 MaxDP=7.77D-05 DE=-9.03D-07 OVMax= 2.15D-04

 Cycle  11  Pass 1  IDiag  1:
 RMSU=  5.07D-07    CP:  1.00D+00  1.05D+00  8.13D-01  1.37D+00  1.18D+00
 E= -2048.74433708560     Delta-E=       -0.000000277074 Rises=F Damp=F
 DIIS: error= 4.83D-06 at cycle   6 NSaved=   6.
 NSaved= 6 IEnMin= 6 EnMin= -2048.74433708560     IErMin= 6 ErrMin= 4.83D-06
 ErrMax= 4.83D-06  0.00D+00 EMaxC= 1.00D-01 BMatC= 3.16D-08 BMatP= 1.27D-07
 IDIUse=1 WtCom= 1.00D+00 WtEn= 0.00D+00
 Coeff-Com:  0.460D-02-0.455D-01-0.116D+00-0.301D-02 0.524D+00 0.636D+00
 Coeff:      0.460D-02-0.455D-01-0.116D+00-0.301D-02 0.524D+00 0.636D+00
 Gap=     0.288 Goal=   None    Shift=    0.000
 RMSDP=3.96D-07 MaxDP=3.60D-05 DE=-2.77D-07 OVMax= 1.07D-04

 Cycle  12  Pass 1  IDiag  1:
 RMSU=  1.93D-07    CP:  1.00D+00  1.05D+00  8.15D-01  1.45D+00  1.31D+00
                    CP:  9.31D-01
 E= -2048.74433713119     Delta-E=       -0.000000045588 Rises=F Damp=F
 DIIS: error= 1.15D-06 at cycle   7 NSaved=   7.
 NSaved= 7 IEnMin= 7 EnMin= -2048.74433713119     IErMin= 7 ErrMin= 1.15D-06
 ErrMax= 1.15D-06  0.00D+00 EMaxC= 1.00D-01 BMatC= 8.04D-10 BMatP= 3.16D-08
 IDIUse=1 WtCom= 1.00D+00 WtEn= 0.00D+00
 Coeff-Com:  0.105D-02-0.683D-02-0.189D-01-0.906D-02 0.517D-01 0.126D+00
 Coeff-Com:  0.856D+00
 Coeff:      0.105D-02-0.683D-02-0.189D-01-0.906D-02 0.517D-01 0.126D+00
 Coeff:      0.856D+00
 Gap=     0.288 Goal=   None    Shift=    0.000
 RMSDP=8.98D-08 MaxDP=5.64D-06 DE=-4.56D-08 OVMax= 2.02D-05

 Cycle  13  Pass 1  IDiag  1:
 RMSU=  5.16D-08    CP:  1.00D+00  1.05D+00  8.15D-01  1.46D+00  1.33D+00
                    CP:  1.02D+00  1.16D+00
 E= -2048.74433713322     Delta-E=       -0.000000002027 Rises=F Damp=F
 DIIS: error= 7.37D-07 at cycle   8 NSaved=   8.
 NSaved= 8 IEnMin= 8 EnMin= -2048.74433713322     IErMin= 8 ErrMin= 7.37D-07
 ErrMax= 7.37D-07  0.00D+00 EMaxC= 1.00D-01 BMatC= 3.39D-10 BMatP= 8.04D-10
 IDIUse=1 WtCom= 1.00D+00 WtEn= 0.00D+00
 Coeff-Com: -0.736D-03 0.912D-02 0.223D-01-0.189D-02-0.116D+00-0.109D+00
 Coeff-Com:  0.423D+00 0.774D+00
 Coeff:     -0.736D-03 0.912D-02 0.223D-01-0.189D-02-0.116D+00-0.109D+00
 Coeff:      0.423D+00 0.774D+00
 Gap=     0.288 Goal=   None    Shift=    0.000
 RMSDP=4.96D-08 MaxDP=2.78D-06 DE=-2.03D-09 OVMax= 1.04D-05

 Cycle  14  Pass 1  IDiag  1:
 RMSU=  2.85D-08    CP:  1.00D+00  1.05D+00  8.15D-01  1.46D+00  1.34D+00
                    CP:  1.06D+00  1.31D+00  1.12D+00
 E= -2048.74433713383     Delta-E=       -0.000000000611 Rises=F Damp=F
 DIIS: error= 1.95D-07 at cycle   9 NSaved=   9.
 NSaved= 9 IEnMin= 9 EnMin= -2048.74433713383     IErMin= 9 ErrMin= 1.95D-07
 ErrMax= 1.95D-07  0.00D+00 EMaxC= 1.00D-01 BMatC= 2.93D-11 BMatP= 3.39D-10
 IDIUse=1 WtCom= 1.00D+00 WtEn= 0.00D+00
 Coeff-Com: -0.401D-03 0.434D-02 0.109D-01 0.284D-03-0.508D-01-0.566D-01
 Coeff-Com:  0.786D-01 0.291D+00 0.723D+00
 Coeff:     -0.401D-03 0.434D-02 0.109D-01 0.284D-03-0.508D-01-0.566D-01
 Coeff:      0.786D-01 0.291D+00 0.723D+00
 Gap=     0.288 Goal=   None    Shift=    0.000
 RMSDP=1.39D-08 MaxDP=9.15D-07 DE=-6.11D-10 OVMax= 2.95D-06

 Cycle  15  Pass 1  IDiag  1:
 RMSU=  9.17D-09    CP:  1.00D+00  1.05D+00  8.15D-01  1.46D+00  1.34D+00
                    CP:  1.07D+00  1.34D+00  1.26D+00  1.12D+00
 E= -2048.74433713391     Delta-E=       -0.000000000081 Rises=F Damp=F
 DIIS: error= 9.39D-08 at cycle  10 NSaved=  10.
 NSaved=10 IEnMin=10 EnMin= -2048.74433713391     IErMin=10 ErrMin= 9.39D-08
 ErrMax= 9.39D-08  0.00D+00 EMaxC= 1.00D-01 BMatC= 5.33D-12 BMatP= 2.93D-11
 IDIUse=1 WtCom= 1.00D+00 WtEn= 0.00D+00
 Coeff-Com:  0.220D-04-0.500D-03-0.113D-02 0.210D-03 0.769D-02 0.408D-02
 Coeff-Com: -0.603D-01-0.711D-01 0.265D+00 0.856D+00
 Coeff:      0.220D-04-0.500D-03-0.113D-02 0.210D-03 0.769D-02 0.408D-02
 Coeff:     -0.603D-01-0.711D-01 0.265D+00 0.856D+00
 Gap=     0.288 Goal=   None    Shift=    0.000
 RMSDP=7.08D-09 MaxDP=4.02D-07 DE=-8.09D-11 OVMax= 1.31D-06

 SCF Done:  E(RwB97XD) =  -2048.74433713     A.U. after   15 cycles
            NFock= 15  Conv=0.71D-08     -V/T= 2.0054
 KE= 2.037826629587D+03 PE=-1.600504713113D+04 EE= 6.306230756728D+03
 Leave Link  502 at Sat Jan 20 10:06:50 2018, MaxMem=  4294967296 cpu:           22597.7 elap:             732.1
 (Enter /share/apps/g16/l601.exe)
 Copying SCF densities to generalized density rwf, IOpCl= 0 IROHF=0.

 **********************************************************************

            Population analysis using the SCF density.

 **********************************************************************

 Orbital symmetries:
       Occupied  (A) (A) (A) (A) (A) (A) (A) (A) (A) (A) (A) (A)
                 (A) (A) (A) (A) (A) (A) (A) (A) (A) (A) (A) (A)
                 (A) (A) (A) (A) (A) (A) (A) (A) (A) (A) (A) (A)
                 (A) (A) (A) (A) (A) (A) (A) (A) (A) (A) (A) (A)
                 (A) (A) (A) (A) (A) (A) (A) (A) (A) (A) (A) (A)
                 (A) (A) (A) (A) (A) (A) (A) (A) (A) (A) (A) (A)
                 (A) (A) (A) (A) (A) (A) (A) (A) (A) (A) (A) (A)
                 (A) (A) (A) (A) (A) (A) (A) (A) (A) (A) (A) (A)
                 (A) (A) (A) (A) (A) (A) (A) (A) (A) (A) (A) (A)
                 (A) (A) (A) (A) (A) (A) (A) (A) (A) (A) (A) (A)
                 (A) (A) (A) (A) (A) (A) (A) (A) (A) (A) (A) (A)
                 (A) (A) (A) (A) (A) (A) (A) (A) (A) (A) (A) (A)
                 (A) (A) (A) (A) (A) (A) (A) (A) (A) (A)
       Virtual   (A) (A) (A) (A) (A) (A) (A) (A) (A) (A) (A) (A)
                 (A) (A) (A) (A) (A) (A) (A) (A) (A) (A) (A) (A)
                 (A) (A) (A) (A) (A) (A) (A) (A) (A) (A) (A) (A)
                 (A) (A) (A) (A) (A) (A) (A) (A) (A) (A) (A) (A)
                 (A) (A) (A) (A) (A) (A) (A) (A) (A) (A) (A) (A)
                 (A) (A) (A) (A) (A) (A) (A) (A) (A) (A) (A) (A)
                 (A) (A) (A) (A) (A) (A) (A) (A) (A) (A) (A) (A)
                 (A) (A) (A) (A) (A) (A) (A) (A) (A) (A) (A) (A)
                 (A) (A) (A) (A) (A) (A) (A) (A) (A) (A) (A) (A)
                 (A) (A) (A) (A) (A) (A) (A) (A) (A) (A) (A) (A)
                 (A) (A) (A) (A) (A) (A) (A) (A) (A) (A) (A) (A)
                 (A) (A) (A) (A) (A) (A) (A) (A) (A) (A) (A) (A)
                 (A) (A) (A) (A) (A) (A) (A) (A) (A) (A) (A) (A)
                 (A) (A) (A) (A) (A) (A) (A) (A) (A) (A) (A) (A)
                 (A) (A) (A) (A) (A) (A) (A) (A) (A) (A) (A) (A)
                 (A) (A) (A) (A) (A) (A) (A) (A) (A) (A) (A) (A)
                 (A) (A) (A) (A) (A) (A) (A) (A) (A) (A) (A) (A)
                 (A) (A) (A) (A) (A) (A) (A) (A) (A) (A) (A) (A)
                 (A) (A) (A) (A) (A) (A) (A) (A) (A) (A) (A) (A)
                 (A) (A) (A) (A) (A) (A) (A) (A) (A) (A) (A) (A)
                 (A) (A) (A) (A) (A) (A) (A) (A) (A) (A) (A) (A)
                 (A) (A) (A) (A) (A) (A) (A) (A) (A) (A) (A) (A)
                 (A) (A) (A) (A) (A) (A) (A) (A) (A) (A) (A) (A)
                 (A) (A) (A) (A) (A) (A) (A) (A) (A) (A) (A) (A)
                 (A) (A) (A) (A) (A) (A) (A) (A) (A) (A) (A) (A)
                 (A) (A) (A) (A) (A) (A) (A) (A) (A) (A) (A) (A)
                 (A) (A) (A) (A) (A) (A) (A) (A) (A) (A) (A) (A)
                 (A) (A) (A) (A) (A) (A) (A) (A) (A) (A) (A) (A)
                 (A) (A) (A) (A) (A) (A) (A) (A) (A) (A) (A) (A)
                 (A) (A) (A) (A) (A) (A) (A) (A) (A) (A) (A) (A)
                 (A) (A) (A) (A) (A) (A) (A) (A) (A) (A) (A) (A)
                 (A) (A) (A) (A) (A) (A) (A) (A) (A) (A) (A) (A)
                 (A) (A) (A) (A) (A) (A) (A) (A) (A) (A) (A) (A)
                 (A) (A) (A) (A) (A) (A) (A) (A) (A) (A) (A) (A)
                 (A) (A) (A) (A) (A) (A) (A) (A) (A) (A) (A) (A)
                 (A) (A) (A) (A) (A) (A) (A) (A) (A) (A) (A) (A)
                 (A) (A) (A) (A) (A) (A) (A) (A) (A) (A) (A) (A)
                 (A) (A) (A) (A) (A) (A) (A) (A) (A) (A) (A) (A)
                 (A) (A) (A) (A) (A) (A) (A) (A) (A) (A) (A) (A)
                 (A) (A) (A) (A) (A) (A) (A) (A) (A) (A) (A) (A)
                 (A) (A) (A) (A) (A) (A) (A) (A) (A) (A) (A) (A)
                 (A) (A) (A) (A) (A) (A) (A) (A) (A) (A) (A) (A)
                 (A) (A) (A) (A) (A) (A) (A) (A) (A) (A) (A) (A)
                 (A) (A) (A) (A) (A) (A) (A) (A) (A) (A) (A) (A)
                 (A) (A) (A) (A) (A) (A) (A) (A) (A) (A) (A) (A)
                 (A) (A) (A) (A) (A) (A) (A) (A) (A) (A) (A) (A)
                 (A) (A) (A) (A) (A) (A) (A) (A) (A) (A) (A) (A)
                 (A) (A) (A) (A) (A) (A) (A) (A) (A) (A) (A) (A)
                 (A) (A) (A) (A) (A) (A) (A)
 The electronic state is 1-A.
 Alpha  occ. eigenvalues --  -19.25271 -19.21568 -19.20514 -14.52590 -14.51924
 Alpha  occ. eigenvalues --  -14.48997 -14.48543 -14.48148 -14.47349 -14.46692
 Alpha  occ. eigenvalues --  -14.46510 -14.45785 -14.44495 -14.44389 -14.42750
 Alpha  occ. eigenvalues --  -14.41869 -14.41504 -14.41281 -14.40848 -14.40597
 Alpha  occ. eigenvalues --  -10.44880 -10.41095 -10.40043 -10.39678 -10.38193
 Alpha  occ. eigenvalues --  -10.38122 -10.37331 -10.37242 -10.35953 -10.35806
 Alpha  occ. eigenvalues --  -10.34570 -10.34294 -10.34233 -10.34180 -10.33620
 Alpha  occ. eigenvalues --  -10.33320 -10.33317 -10.32839 -10.31556 -10.30646
 Alpha  occ. eigenvalues --  -10.30601 -10.28745 -10.27999  -1.19018  -1.15545
 Alpha  occ. eigenvalues --   -1.13065  -1.12591  -1.11548  -1.10428  -1.09425
 Alpha  occ. eigenvalues --   -1.08854  -1.08423  -1.05402  -1.04893  -1.02027
 Alpha  occ. eigenvalues --   -1.01243  -1.00830  -0.99575  -0.98408  -0.97271
 Alpha  occ. eigenvalues --   -0.96939  -0.96425  -0.93087  -0.90573  -0.87877
 Alpha  occ. eigenvalues --   -0.86214  -0.84256  -0.83965  -0.83289  -0.82703
 Alpha  occ. eigenvalues --   -0.82279  -0.78392  -0.77232  -0.75050  -0.74480
 Alpha  occ. eigenvalues --   -0.73482  -0.73220  -0.72922  -0.71363  -0.70580
 Alpha  occ. eigenvalues --   -0.67247  -0.66945  -0.66658  -0.66116  -0.64433
 Alpha  occ. eigenvalues --   -0.64200  -0.63604  -0.63082  -0.62516  -0.61775
 Alpha  occ. eigenvalues --   -0.61631  -0.60800  -0.60612  -0.59688  -0.59094
 Alpha  occ. eigenvalues --   -0.58425  -0.58216  -0.57411  -0.56932  -0.56101
 Alpha  occ. eigenvalues --   -0.55918  -0.55654  -0.55468  -0.54044  -0.53983
 Alpha  occ. eigenvalues --   -0.53789  -0.53750  -0.53475  -0.53344  -0.52998
 Alpha  occ. eigenvalues --   -0.52765  -0.52186  -0.52122  -0.50982  -0.50509
 Alpha  occ. eigenvalues --   -0.50178  -0.49916  -0.49232  -0.49126  -0.48753
 Alpha  occ. eigenvalues --   -0.48559  -0.48263  -0.48142  -0.47448  -0.47141
 Alpha  occ. eigenvalues --   -0.47089  -0.45953  -0.45078  -0.44906  -0.43005
 Alpha  occ. eigenvalues --   -0.41224  -0.40965  -0.39037  -0.37934  -0.37768
 Alpha  occ. eigenvalues --   -0.37521  -0.37165  -0.37028  -0.36081  -0.34863
 Alpha  occ. eigenvalues --   -0.34464  -0.34127  -0.33818  -0.33445  -0.32871
 Alpha  occ. eigenvalues --   -0.32497  -0.32157  -0.31750  -0.31684  -0.31142
 Alpha  occ. eigenvalues --   -0.30789  -0.29519  -0.25997  -0.25381
 Alpha virt. eigenvalues --    0.03464   0.03748   0.06974   0.07596   0.08768
 Alpha virt. eigenvalues --    0.09144   0.09805   0.10201   0.10734   0.12491
 Alpha virt. eigenvalues --    0.13055   0.13783   0.14022   0.14273   0.14578
 Alpha virt. eigenvalues --    0.15094   0.16173   0.17551   0.17795   0.18107
 Alpha virt. eigenvalues --    0.18333   0.19181   0.19624   0.20090   0.20380
 Alpha virt. eigenvalues --    0.20657   0.21193   0.21312   0.21430   0.22067
 Alpha virt. eigenvalues --    0.22536   0.22692   0.23248   0.23456   0.24082
 Alpha virt. eigenvalues --    0.24095   0.24348   0.25362   0.25588   0.26153
 Alpha virt. eigenvalues --    0.26457   0.27771   0.27906   0.28007   0.28732
 Alpha virt. eigenvalues --    0.28920   0.29165   0.29638   0.30435   0.30467
 Alpha virt. eigenvalues --    0.31334   0.31736   0.32693   0.33226   0.33559
 Alpha virt. eigenvalues --    0.33766   0.34468   0.35696   0.36126   0.36529
 Alpha virt. eigenvalues --    0.36901   0.37195   0.38044   0.38763   0.39204
 Alpha virt. eigenvalues --    0.39393   0.40136   0.40434   0.41270   0.41725
 Alpha virt. eigenvalues --    0.42348   0.42653   0.43260   0.43685   0.43998
 Alpha virt. eigenvalues --    0.45180   0.45916   0.46281   0.46541   0.46911
 Alpha virt. eigenvalues --    0.47242   0.47770   0.48493   0.48847   0.49063
 Alpha virt. eigenvalues --    0.49393   0.50491   0.50560   0.51398   0.51554
 Alpha virt. eigenvalues --    0.52373   0.52445   0.52662   0.53458   0.53595
 Alpha virt. eigenvalues --    0.54052   0.54064   0.54808   0.55690   0.56104
 Alpha virt. eigenvalues --    0.56450   0.56690   0.56979   0.57283   0.57515
 Alpha virt. eigenvalues --    0.57939   0.58375   0.58949   0.59324   0.59461
 Alpha virt. eigenvalues --    0.60062   0.60741   0.60950   0.61456   0.61537
 Alpha virt. eigenvalues --    0.61865   0.62290   0.62778   0.63523   0.63687
 Alpha virt. eigenvalues --    0.64248   0.64898   0.65290   0.65410   0.65591
 Alpha virt. eigenvalues --    0.65958   0.66404   0.66703   0.67524   0.68188
 Alpha virt. eigenvalues --    0.68642   0.68869   0.69564   0.69691   0.70115
 Alpha virt. eigenvalues --    0.70653   0.71144   0.71270   0.71635   0.72760
 Alpha virt. eigenvalues --    0.73033   0.73347   0.73488   0.73819   0.74153
 Alpha virt. eigenvalues --    0.74597   0.74931   0.75513   0.75534   0.75898
 Alpha virt. eigenvalues --    0.76133   0.76777   0.76833   0.77167   0.77644
 Alpha virt. eigenvalues --    0.78251   0.78773   0.79135   0.79434   0.79829
 Alpha virt. eigenvalues --    0.80002   0.80179   0.80541   0.80943   0.81698
 Alpha virt. eigenvalues --    0.81904   0.82379   0.83028   0.83246   0.83896
 Alpha virt. eigenvalues --    0.83923   0.84146   0.84380   0.84797   0.85242
 Alpha virt. eigenvalues --    0.86301   0.86499   0.86883   0.87082   0.87723
 Alpha virt. eigenvalues --    0.88816   0.88947   0.89329   0.89993   0.90551
 Alpha virt. eigenvalues --    0.90602   0.91189   0.92006   0.92506   0.92887
 Alpha virt. eigenvalues --    0.92990   0.93553   0.94165   0.94262   0.94850
 Alpha virt. eigenvalues --    0.95332   0.95836   0.96730   0.96950   0.97262
 Alpha virt. eigenvalues --    0.97492   0.98497   0.98885   0.99218   0.99492
 Alpha virt. eigenvalues --    1.00377   1.00882   1.01091   1.01718   1.02151
 Alpha virt. eigenvalues --    1.02420   1.02967   1.03530   1.03970   1.04114
 Alpha virt. eigenvalues --    1.04416   1.04601   1.05218   1.05479   1.05984
 Alpha virt. eigenvalues --    1.06940   1.07648   1.07895   1.08548   1.09466
 Alpha virt. eigenvalues --    1.10076   1.10215   1.10763   1.11165   1.11274
 Alpha virt. eigenvalues --    1.11577   1.12557   1.13728   1.13959   1.14518
 Alpha virt. eigenvalues --    1.15108   1.15255   1.15375   1.16015   1.16707
 Alpha virt. eigenvalues --    1.16834   1.17224   1.17546   1.18110   1.18757
 Alpha virt. eigenvalues --    1.19156   1.19413   1.19851   1.20380   1.20704
 Alpha virt. eigenvalues --    1.20825   1.21078   1.21629   1.22045   1.22245
 Alpha virt. eigenvalues --    1.22703   1.23111   1.23218   1.23923   1.24403
 Alpha virt. eigenvalues --    1.24737   1.25078   1.25651   1.25779   1.26854
 Alpha virt. eigenvalues --    1.27023   1.27242   1.27668   1.28134   1.28562
 Alpha virt. eigenvalues --    1.29406   1.29872   1.30918   1.31643   1.31880
 Alpha virt. eigenvalues --    1.32655   1.33033   1.34157   1.34721   1.35581
 Alpha virt. eigenvalues --    1.35786   1.36173   1.36980   1.37641   1.38737
 Alpha virt. eigenvalues --    1.39029   1.39151   1.39518   1.39815   1.41341
 Alpha virt. eigenvalues --    1.41760   1.43244   1.43655   1.44354   1.45016
 Alpha virt. eigenvalues --    1.47078   1.47781   1.47891   1.48308   1.48856
 Alpha virt. eigenvalues --    1.50005   1.50249   1.51064   1.52002   1.52179
 Alpha virt. eigenvalues --    1.52650   1.54158   1.54555   1.54903   1.55959
 Alpha virt. eigenvalues --    1.56574   1.57275   1.57635   1.58561   1.59099
 Alpha virt. eigenvalues --    1.59986   1.60395   1.60466   1.61321   1.61984
 Alpha virt. eigenvalues --    1.62894   1.63181   1.63435   1.64236   1.64631
 Alpha virt. eigenvalues --    1.65159   1.65891   1.66091   1.66878   1.67315
 Alpha virt. eigenvalues --    1.67726   1.68391   1.68975   1.69726   1.70065
 Alpha virt. eigenvalues --    1.70320   1.71191   1.71747   1.72095   1.72426
 Alpha virt. eigenvalues --    1.72917   1.73227   1.73278   1.74063   1.74517
 Alpha virt. eigenvalues --    1.74768   1.75638   1.76088   1.76228   1.76605
 Alpha virt. eigenvalues --    1.76734   1.77293   1.77545   1.77913   1.78147
 Alpha virt. eigenvalues --    1.78262   1.78370   1.79017   1.79424   1.79547
 Alpha virt. eigenvalues --    1.80268   1.80461   1.80993   1.81434   1.81806
 Alpha virt. eigenvalues --    1.82500   1.83038   1.83255   1.83442   1.83685
 Alpha virt. eigenvalues --    1.84006   1.84341   1.84613   1.84986   1.85673
 Alpha virt. eigenvalues --    1.86259   1.86762   1.87333   1.87446   1.87728
 Alpha virt. eigenvalues --    1.88078   1.89448   1.89857   1.90363   1.90909
 Alpha virt. eigenvalues --    1.91090   1.91320   1.91613   1.91949   1.92399
 Alpha virt. eigenvalues --    1.92878   1.93355   1.93562   1.94091   1.95023
 Alpha virt. eigenvalues --    1.96280   1.97424   1.98314   1.98431   1.98543
 Alpha virt. eigenvalues --    1.99376   2.00127   2.01014   2.02178   2.02469
 Alpha virt. eigenvalues --    2.02817   2.03518   2.04465   2.05115   2.05544
 Alpha virt. eigenvalues --    2.05775   2.06770   2.07481   2.07536   2.08612
 Alpha virt. eigenvalues --    2.09115   2.10559   2.10854   2.11306   2.11735
 Alpha virt. eigenvalues --    2.12939   2.13429   2.13854   2.13988   2.14941
 Alpha virt. eigenvalues --    2.15367   2.16420   2.17239   2.18082   2.18956
 Alpha virt. eigenvalues --    2.19470   2.19914   2.20036   2.21271   2.22509
 Alpha virt. eigenvalues --    2.22791   2.23556   2.24002   2.24719   2.25117
 Alpha virt. eigenvalues --    2.25538   2.25954   2.26373   2.27021   2.27878
 Alpha virt. eigenvalues --    2.28578   2.29080   2.29611   2.29811   2.30487
 Alpha virt. eigenvalues --    2.30901   2.31956   2.32466   2.32697   2.33502
 Alpha virt. eigenvalues --    2.33979   2.34276   2.34737   2.35001   2.35196
 Alpha virt. eigenvalues --    2.35522   2.36110   2.36852   2.37599   2.37755
 Alpha virt. eigenvalues --    2.38300   2.39483   2.40370   2.40941   2.41291
 Alpha virt. eigenvalues --    2.41938   2.43365   2.43703   2.43849   2.44435
 Alpha virt. eigenvalues --    2.45330   2.45590   2.46087   2.46755   2.47290
 Alpha virt. eigenvalues --    2.48251   2.48907   2.50340   2.51706   2.52262
 Alpha virt. eigenvalues --    2.53325   2.54074   2.55569   2.56532   2.57203
 Alpha virt. eigenvalues --    2.58137   2.58771   2.58927   2.59932   2.61118
 Alpha virt. eigenvalues --    2.61784   2.62749   2.63082   2.63690   2.64601
 Alpha virt. eigenvalues --    2.65157   2.65799   2.66515   2.66916   2.68633
 Alpha virt. eigenvalues --    2.68968   2.69242   2.69616   2.70583   2.70873
 Alpha virt. eigenvalues --    2.71388   2.72010   2.72160   2.72744   2.73024
 Alpha virt. eigenvalues --    2.74196   2.75659   2.75769   2.76511   2.77714
 Alpha virt. eigenvalues --    2.77938   2.78155   2.79437   2.79841   2.79988
 Alpha virt. eigenvalues --    2.80645   2.80820   2.81128   2.81834   2.82300
 Alpha virt. eigenvalues --    2.82614   2.83186   2.84047   2.84186   2.85152
 Alpha virt. eigenvalues --    2.85547   2.86190   2.86579   2.87058   2.87301
 Alpha virt. eigenvalues --    2.88273   2.89079   2.89870   2.93563   2.94442
 Alpha virt. eigenvalues --    2.95326   2.98213   2.99258   2.99869   3.00557
 Alpha virt. eigenvalues --    3.01680   3.02016   3.02831   3.05129   3.06883
 Alpha virt. eigenvalues --    3.08278   3.09951   3.10567   3.13028   3.15383
 Alpha virt. eigenvalues --    3.15645   3.16393   3.16990   3.18017   3.20915
 Alpha virt. eigenvalues --    3.22301   3.23038   3.24096   3.24427   3.27487
 Alpha virt. eigenvalues --    3.44731   3.47701   3.48377   3.49411   3.51110
 Alpha virt. eigenvalues --    3.53201   3.54705   3.56493   3.58385   3.60442
 Alpha virt. eigenvalues --    3.63986   3.71267   3.75464
          Condensed to atoms (all electrons):
 Mulliken charges:
               1
     1  N   -0.305979
     2  C    0.173500
     3  C    0.076891
     4  N   -0.255976
     5  C    0.137189
     6  H    0.026659
     7  N   -0.287061
     8  C    0.134692
     9  H    0.013305
    10  N   -0.282722
    11  C    0.224545
    12  C    0.083226
    13  N   -0.048430
    14  H    0.110567
    15  H    0.083881
    16  H    0.028722
    17  H    0.035897
    18  H    0.020947
    19  N   -0.285266
    20  C    0.236497
    21  C    0.186135
    22  N   -0.114877
    23  H    0.117749
    24  H    0.116533
    25  N   -0.298017
    26  C    0.229706
    27  N   -0.132759
    28  H    0.114206
    29  C    0.178451
    30  O   -0.322278
    31  C   -0.009598
    32  N   -0.216550
    33  C    0.110315
    34  H    0.016398
    35  H    0.017725
    36  H    0.029553
    37  H    0.021280
    38  H    0.047834
    39  H    0.057466
    40  H    0.072739
    41  H    0.024353
    42  C   -0.104342
    43  O   -0.268817
    44  C    0.167922
    45  H    0.129964
    46  N   -0.113306
    47  O   -0.336233
    48  C    0.330645
    49  H    0.045407
    50  C    0.167425
    51  C    0.053469
    52  N   -0.276560
    53  H    0.037076
    54  H    0.040639
    55  H    0.022962
    56  H    0.124802
    57  H    0.118306
    58  N   -0.058329
    59  C    0.091667
    60  C    0.184561
    61  N   -0.252164
    62  H    0.026215
    63  C    0.157123
    64  N   -0.297311
    65  H    0.035775
    66  C    0.109463
    67  N   -0.247331
    68  C    0.055479
    69  C    0.181210
    70  N   -0.293165
 Sum of Mulliken charges =  -0.00000
 Mulliken charges with hydrogens summed into heavy atoms:
               1
     1  N   -0.305979
     2  C    0.259065
     3  C    0.076891
     4  N   -0.255976
     5  C    0.163848
     7  N   -0.287061
     8  C    0.147997
    10  N   -0.282722
    11  C    0.224545
    12  C    0.083226
    13  N    0.146018
    19  N   -0.285266
    20  C    0.236497
    21  C    0.254694
    22  N    0.119405
    25  N   -0.298017
    26  C    0.229706
    27  N   -0.018553
    29  C    0.178451
    30  O   -0.322278
    31  C   -0.009598
    32  N   -0.216550
    33  C    0.126713
    42  C   -0.079989
    43  O   -0.268817
    44  C    0.167922
    46  N    0.016658
    47  O   -0.336233
    48  C    0.330645
    50  C    0.212832
    51  C    0.231508
    52  N   -0.276560
    58  N    0.184779
    59  C    0.091667
    60  C    0.184561
    61  N   -0.252164
    63  C    0.183338
    64  N   -0.297311
    66  C    0.145239
    67  N   -0.247331
    68  C    0.055479
    69  C    0.281888
    70  N   -0.293165
 Electronic spatial extent (au):  <R**2>=          21737.8457
 Charge=             -0.0000 electrons
 Dipole moment (field-independent basis, Debye):
    X=             -6.1667    Y=              6.7489    Z=             -3.5453  Tot=              9.8054
 Quadrupole moment (field-independent basis, Debye-Ang):
   XX=           -148.7395   YY=           -226.4074   ZZ=           -259.3437
   XY=             -7.7050   XZ=             -1.7768   YZ=             11.1338
 Traceless Quadrupole moment (field-independent basis, Debye-Ang):
   XX=             62.7574   YY=            -14.9105   ZZ=            -47.8468
   XY=             -7.7050   XZ=             -1.7768   YZ=             11.1338
 Octapole moment (field-independent basis, Debye-Ang**2):
  XXX=             92.7123  YYY=             82.4766  ZZZ=            -10.0276  XYY=            -75.9859
  XXY=             85.3147  XXZ=             -9.0068  XZZ=            -40.6618  YZZ=             39.2419
  YYZ=            -63.8530  XYZ=             40.8670
 Hexadecapole moment (field-independent basis, Debye-Ang**3):
 XXXX=         -15925.1126 YYYY=          -4157.3337 ZZZZ=          -3629.3429 XXXY=           -631.4872
 XXXZ=           -133.9125 YYYX=             35.5209 YYYZ=             78.1079 ZZZX=             -6.3734
 ZZZY=             28.7135 XXYY=          -3640.9429 XXZZ=          -3916.6353 YYZZ=          -1409.3088
 XXYZ=            -62.0708 YYXZ=            153.5227 ZZXY=            -71.8814
 N-N= 5.612245407679D+03 E-N=-1.600504712822D+04  KE= 2.037826629587D+03
 No NMR shielding tensors so no spin-rotation constants.
 Leave Link  601 at Sat Jan 20 10:06:52 2018, MaxMem=  4294967296 cpu:              49.6 elap:               1.7
 (Enter /share/apps/g16/l9999.exe)
 1\1\GINC-COMPUTE-0-3\SP\RwB97XD\CC-pVDZ\C23H27N17O3\SATYA\20-Jan-2018\
 0\\#p wb97xd/cc-pvdz sp scf=(maxcycles=20)\\Base pair stacking\\0,1\N,
 0,1.98253,4.07356,-6.68555\C,0,2.20953,5.53137,-6.64998\C,0,1.05031,2.
 0838,-6.58989\N,0,2.38327,1.87282,-6.91148\C,0,2.89155,3.08002,-6.9562
 4\H,0,3.93368,3.30589,-7.18403\N,0,-1.22703,1.73749,-6.08319\C,0,-1.32
 742,3.06668,-5.97955\H,0,-2.31906,3.43985,-5.72723\N,0,-0.39118,3.9997
 4,-6.14004\C,0,0.78838,3.43533,-6.44747\C,0,-0.02688,1.20056,-6.39372\
 N,0,0.07534,-0.12606,-6.49763\H,0,0.94421,-0.56688,-6.7256\H,0,-0.7126
 6,-0.7242,-6.35123\H,0,2.53076,5.84199,-7.54469\H,0,1.35456,5.99717,-6
 .42373\H,0,2.89792,5.74682,-5.95738\N,0,0.37929,4.3921,-3.19041\C,0,-0
 .4441,3.29649,-3.09177\C,0,-0.06576,5.79985,-3.16118\N,0,-3.62494,1.94
 594,-2.74537\H,0,-4.03878,1.0376,-2.69148\H,0,-4.24343,2.73028,-2.6906
 3\N,0,-1.78725,3.3217,-2.95267\C,0,-2.30024,2.10603,-2.88479\N,0,-1.55
 65,0.95262,-2.94809\H,0,-2.03361,0.06622,-2.88789\C,0,-0.1734,0.90292,
 -3.09103\O,0,0.40193,-0.19141,-3.13757\C,0,0.39192,2.20129,-3.16534\N,
 0,1.71357,2.60128,-3.30733\C,0,1.65749,3.90549,-3.31721\H,0,2.52167,4.
 56347,-3.41483\H,0,0.1944,6.2512,-4.01406\H,0,-1.05911,5.83109,-3.0584
 6\H,0,0.36287,6.27075,-2.39089\H,0,-5.0587,-4.01029,-3.17708\H,0,-4.66
 223,-4.16759,-1.46749\H,0,-4.74606,-2.56931,-2.20899\H,0,-0.65523,-5.9
 2659,-3.4666\C,0,-1.12404,-4.9625,-3.26917\O,0,0.86485,-3.71701,-3.615
 81\C,0,-0.33402,-3.77159,-3.34281\H,0,-0.49972,-1.74422,-3.11784\N,0,-
 1.02436,-2.60659,-3.07552\O,0,-2.87673,-1.40886,-2.53573\C,0,-2.35376,
 -2.48708,-2.75622\H,0,-3.06751,-5.75365,-2.89126\C,0,-2.42326,-4.87812
 ,-2.96011\C,0,-4.47239,-3.60184,-2.36746\N,0,-3.04836,-3.6796,-2.70486
 \H,0,-7.85462,-2.45285,-4.98845\H,0,-6.87841,-1.46557,-4.13147\H,0,-7.
 35931,-2.89007,-3.49616\H,0,-0.768,-3.69065,-6.80866\H,0,-1.94352,-4.9
 2654,-6.78001\N,0,-1.6995,-3.97631,-6.58319\C,0,-2.57802,-3.12858,-6.0
 4399\C,0,-4.69177,-2.49121,-5.15657\N,0,-4.33628,-1.22084,-4.90315\H,0
 ,-2.70029,-0.00035,-5.08904\C,0,-3.07126,-1.00983,-5.26107\N,0,-2.1897
 4,-1.85759,-5.80127\H,0,-6.61865,-5.0845,-5.27546\C,0,-5.78894,-4.3804
 3,-5.34487\N,0,-4.60354,-4.67038,-5.82281\C,0,-3.89805,-3.48121,-5.709
 22\C,0,-7.09572,-2.41909,-4.33811\N,0,-5.91252,-3.07894,-4.92345\\Vers
 ion=EM64L-G16RevA.03\State=1-A\HF=-2048.7443371\RMSD=7.083e-09\Dipole=
 -3.8331529,-0.4082686,0.1494574\Quadrupole=0.3947809,22.5087422,-22.90
 35232,32.2580285,-18.1500265,-0.2562668\PG=C01 [X(C23H27N17O3)]\\@


 You never know when you're making a memory.
                        -- Rickie Lee Jones
 Job cpu time:       0 days  6 hours 27 minutes  2.5 seconds.
 Elapsed time:       0 days  0 hours 12 minutes 32.1 seconds.
 File lengths (MBytes):  RWF=    298 Int=      0 D2E=      0 Chk=     33 Scr=      1
 Normal termination of Gaussian 16 at Sat Jan 20 10:06:53 2018.
