 Entering Gaussian System, Link 0=g16
 Input=str25.-10.-0.5.com
 Output=str25.-10.-0.5.log
 Initial command:
 /share/apps/g16/l1.exe "/state/partition1/scr/Gau-5638.inp" -scrdir="/state/partition1/scr/"
 Entering Link 1 = /share/apps/g16/l1.exe PID=      5639.
  
 Copyright (c) 1988,1990,1992,1993,1995,1998,2003,2009,2016,
            Gaussian, Inc.  All Rights Reserved.
  
 This is part of the Gaussian(R) 16 program.  It is based on
 the Gaussian(R) 09 system (copyright 2009, Gaussian, Inc.),
 the Gaussian(R) 03 system (copyright 2003, Gaussian, Inc.),
 the Gaussian(R) 98 system (copyright 1998, Gaussian, Inc.),
 the Gaussian(R) 94 system (copyright 1995, Gaussian, Inc.),
 the Gaussian 92(TM) system (copyright 1992, Gaussian, Inc.),
 the Gaussian 90(TM) system (copyright 1990, Gaussian, Inc.),
 the Gaussian 88(TM) system (copyright 1988, Gaussian, Inc.),
 the Gaussian 86(TM) system (copyright 1986, Carnegie Mellon
 University), and the Gaussian 82(TM) system (copyright 1983,
 Carnegie Mellon University). Gaussian is a federally registered
 trademark of Gaussian, Inc.
  
 This software contains proprietary and confidential information,
 including trade secrets, belonging to Gaussian, Inc.
  
 This software is provided under written license and may be
 used, copied, transmitted, or stored only in accord with that
 written license.
  
 The following legend is applicable only to US Government
 contracts under FAR:
  
                    RESTRICTED RIGHTS LEGEND
  
 Use, reproduction and disclosure by the US Government is
 subject to restrictions as set forth in subparagraphs (a)
 and (c) of the Commercial Computer Software - Restricted
 Rights clause in FAR 52.227-19.
  
 Gaussian, Inc.
 340 Quinnipiac St., Bldg. 40, Wallingford CT 06492
  
  
 ---------------------------------------------------------------
 Warning -- This program may not be used in any manner that
 competes with the business of Gaussian, Inc. or will provide
 assistance to any competitor of Gaussian, Inc.  The licensee
 of this program is prohibited from giving any competitor of
 Gaussian, Inc. access to this program.  By using this program,
 the user acknowledges that Gaussian, Inc. is engaged in the
 business of creating and licensing software in the field of
 computational chemistry and represents and warrants to the
 licensee that it is not a competitor of Gaussian, Inc. and that
 it will not use this program in any manner prohibited above.
 ---------------------------------------------------------------
  

 Cite this work as:
 Gaussian 16, Revision A.03,
 M. J. Frisch, G. W. Trucks, H. B. Schlegel, G. E. Scuseria, 
 M. A. Robb, J. R. Cheeseman, G. Scalmani, V. Barone, 
 G. A. Petersson, H. Nakatsuji, X. Li, M. Caricato, A. V. Marenich, 
 J. Bloino, B. G. Janesko, R. Gomperts, B. Mennucci, H. P. Hratchian, 
 J. V. Ortiz, A. F. Izmaylov, J. L. Sonnenberg, D. Williams-Young, 
 F. Ding, F. Lipparini, F. Egidi, J. Goings, B. Peng, A. Petrone, 
 T. Henderson, D. Ranasinghe, V. G. Zakrzewski, J. Gao, N. Rega, 
 G. Zheng, W. Liang, M. Hada, M. Ehara, K. Toyota, R. Fukuda, 
 J. Hasegawa, M. Ishida, T. Nakajima, Y. Honda, O. Kitao, H. Nakai, 
 T. Vreven, K. Throssell, J. A. Montgomery, Jr., J. E. Peralta, 
 F. Ogliaro, M. J. Bearpark, J. J. Heyd, E. N. Brothers, K. N. Kudin, 
 V. N. Staroverov, T. A. Keith, R. Kobayashi, J. Normand, 
 K. Raghavachari, A. P. Rendell, J. C. Burant, S. S. Iyengar, 
 J. Tomasi, M. Cossi, J. M. Millam, M. Klene, C. Adamo, R. Cammi, 
 J. W. Ochterski, R. L. Martin, K. Morokuma, O. Farkas, 
 J. B. Foresman, and D. J. Fox, Gaussian, Inc., Wallingford CT, 2016.
 
 ******************************************
 Gaussian 16:  EM64L-G16RevA.03 25-Dec-2016
                20-Jan-2018 
 ******************************************
 %nprocshared=32
 Will use up to   32 processors via shared memory.
 %mem=32GB
 %chk=allatoms_t.chk
 ---------------------------------------
 #p wb97xd/cc-pvdz sp scf=(maxcycles=20)
 ---------------------------------------
 1/38=1,172=1/1;
 2/12=2,17=6,18=5,40=1/2;
 3/5=16,11=2,25=1,30=1,74=-58/1,2,3;
 4//1;
 5/5=2,7=20,38=5/2;
 6/7=2,8=2,9=2,10=2,28=1/1;
 99/5=1,9=1/99;
 Leave Link    1 at Sat Jan 20 09:42:01 2018, MaxMem=  4294967296 cpu:               2.7 elap:               0.1
 (Enter /share/apps/g16/l101.exe)
 ------------------
 Base pair stacking
 ------------------
 Symbolic Z-matrix:
 Charge =  0 Multiplicity = 1
 N                     2.79542   5.83798  -6.79411 
 C                     3.02242   7.29579  -6.75855 
 C                     1.8632    3.84822  -6.69845 
 N                     3.19616   3.63723  -7.02005 
 C                     3.70444   4.84443  -7.06481 
 H                     4.74657   5.07031  -7.2926 
 N                    -0.41414   3.5019   -6.19176 
 C                    -0.51453   4.8311   -6.08812 
 H                    -1.50617   5.20426  -5.8358 
 N                     0.42171   5.76416  -6.24861 
 C                     1.60127   5.19975  -6.55603 
 C                     0.78601   2.96498  -6.50229 
 N                     0.88823   1.63836  -6.6062 
 H                     1.7571    1.19754  -6.83416 
 H                     0.10023   1.04022  -6.4598 
 H                     3.34365   7.60641  -7.65326 
 H                     2.16745   7.76158  -6.5323 
 H                     3.71081   7.51124  -6.06595 
 N                     0.59413   5.36477  -3.20913 
 C                    -0.22925   4.26916  -3.11048 
 C                     0.14908   6.77252  -3.17989 
 N                    -3.41009   2.9186   -2.76409 
 H                    -3.82393   2.01027  -2.7102 
 H                    -4.02858   3.70295  -2.70934 
 N                    -1.57241   4.29437  -2.97138 
 C                    -2.08539   3.0787   -2.9035 
 N                    -1.34165   1.92529  -2.9668 
 H                    -1.81876   1.03889  -2.90661 
 C                     0.04145   1.87559  -3.10975 
 O                     0.61678   0.78125  -3.15628 
 C                     0.60677   3.17396  -3.18406 
 N                     1.92841   3.57395  -3.32605 
 C                     1.87233   4.87816  -3.33593 
 H                     2.73652   5.53614  -3.43355 
 H                     0.40925   7.22387  -4.03277 
 H                    -0.84427   6.80376  -3.07717 
 H                     0.57771   7.24342  -2.40961 
 H                    -4.84385  -3.03762  -3.1958 
 H                    -4.44738  -3.19492  -1.4862 
 H                    -4.53121  -1.59664  -2.22771 
 H                    -0.44038  -4.95392  -3.48532 
 C                    -0.9092   -3.98983  -3.28789 
 O                     1.07969  -2.74434  -3.63453 
 C                    -0.11917  -2.79892  -3.36153 
 H                    -0.28487  -0.77155  -3.13656 
 N                    -0.80951  -1.63392  -3.09424 
 O                    -2.66188  -0.43619  -2.55445 
 C                    -2.13892  -1.51441  -2.77494 
 H                    -2.85267  -4.78098  -2.90998 
 C                    -2.20842  -3.90546  -2.97883 
 C                    -4.25755  -2.62917  -2.38618 
 N                    -2.83352  -2.70693  -2.72358 
 H                    -7.04173  -0.68843  -5.09701 
 H                    -6.06552   0.29884  -4.24004 
 H                    -6.54642  -1.12565  -3.60472 
 H                     0.04489  -1.92623  -6.91723 
 H                    -1.13063  -3.16212  -6.88857 
 N                    -0.88661  -2.21189  -6.69175 
 C                    -1.76513  -1.36416  -6.15256 
 C                    -3.87888  -0.72679  -5.26513 
 N                    -3.52339   0.54358  -5.01172 
 H                    -1.8874    1.76407  -5.19761 
 C                    -2.25837   0.75459  -5.36964 
 N                    -1.37686  -0.09317  -5.90983 
 H                    -5.80576  -3.32009  -5.38403 
 C                    -4.97606  -2.61601  -5.45343 
 N                    -3.79065  -2.90596  -5.93138 
 C                    -3.08516  -1.71679  -5.81779 
 C                    -6.28283  -0.65468  -4.44668 
 N                    -5.09963  -1.31453  -5.03202 
 
 ITRead=  0  0  0  0  0  0  0  0  0  0  0  0  0  0  0  0  0  0  0  0
 ITRead=  0  0  0  0  0  0  0  0  0  0  0  0  0  0  0  0  0  0  0  0
 ITRead=  0  0  0  0  0  0  0  0  0  0  0  0  0  0  0  0  0  0  0  0
 ITRead=  0  0  0  0  0  0  0  0  0  0
 MicOpt= -1 -1 -1 -1 -1 -1 -1 -1 -1 -1 -1 -1 -1 -1 -1 -1 -1 -1 -1 -1
 MicOpt= -1 -1 -1 -1 -1 -1 -1 -1 -1 -1 -1 -1 -1 -1 -1 -1 -1 -1 -1 -1
 MicOpt= -1 -1 -1 -1 -1 -1 -1 -1 -1 -1 -1 -1 -1 -1 -1 -1 -1 -1 -1 -1
 MicOpt= -1 -1 -1 -1 -1 -1 -1 -1 -1 -1
 NAtoms=     70 NQM=       70 NQMF=       0 NMMI=      0 NMMIF=      0
                NMic=       0 NMicF=      0.
                    Isotopes and Nuclear Properties:
 (Nuclear quadrupole moments (NQMom) in fm**2, nuclear magnetic moments (NMagM)
  in nuclear magnetons)

  Atom         1           2           3           4           5           6           7           8           9          10
 IAtWgt=          14          12          12          14          12           1          14          12           1          14
 AtmWgt=  14.0030740  12.0000000  12.0000000  14.0030740  12.0000000   1.0078250  14.0030740  12.0000000   1.0078250  14.0030740
 NucSpn=           2           0           0           2           0           1           2           0           1           2
 AtZEff=  -0.0000000  -0.0000000  -0.0000000  -0.0000000  -0.0000000  -0.0000000  -0.0000000  -0.0000000  -0.0000000  -0.0000000
 NQMom=    2.0440000   0.0000000   0.0000000   2.0440000   0.0000000   0.0000000   2.0440000   0.0000000   0.0000000   2.0440000
 NMagM=    0.4037610   0.0000000   0.0000000   0.4037610   0.0000000   2.7928460   0.4037610   0.0000000   2.7928460   0.4037610
 AtZNuc=   7.0000000   6.0000000   6.0000000   7.0000000   6.0000000   1.0000000   7.0000000   6.0000000   1.0000000   7.0000000

  Atom        11          12          13          14          15          16          17          18          19          20
 IAtWgt=          12          12          14           1           1           1           1           1          14          12
 AtmWgt=  12.0000000  12.0000000  14.0030740   1.0078250   1.0078250   1.0078250   1.0078250   1.0078250  14.0030740  12.0000000
 NucSpn=           0           0           2           1           1           1           1           1           2           0
 AtZEff=  -0.0000000  -0.0000000  -0.0000000  -0.0000000  -0.0000000  -0.0000000  -0.0000000  -0.0000000  -0.0000000  -0.0000000
 NQMom=    0.0000000   0.0000000   2.0440000   0.0000000   0.0000000   0.0000000   0.0000000   0.0000000   2.0440000   0.0000000
 NMagM=    0.0000000   0.0000000   0.4037610   2.7928460   2.7928460   2.7928460   2.7928460   2.7928460   0.4037610   0.0000000
 AtZNuc=   6.0000000   6.0000000   7.0000000   1.0000000   1.0000000   1.0000000   1.0000000   1.0000000   7.0000000   6.0000000

  Atom        21          22          23          24          25          26          27          28          29          30
 IAtWgt=          12          14           1           1          14          12          14           1          12          16
 AtmWgt=  12.0000000  14.0030740   1.0078250   1.0078250  14.0030740  12.0000000  14.0030740   1.0078250  12.0000000  15.9949146
 NucSpn=           0           2           1           1           2           0           2           1           0           0
 AtZEff=  -0.0000000  -0.0000000  -0.0000000  -0.0000000  -0.0000000  -0.0000000  -0.0000000  -0.0000000  -0.0000000  -0.0000000
 NQMom=    0.0000000   2.0440000   0.0000000   0.0000000   2.0440000   0.0000000   2.0440000   0.0000000   0.0000000   0.0000000
 NMagM=    0.0000000   0.4037610   2.7928460   2.7928460   0.4037610   0.0000000   0.4037610   2.7928460   0.0000000   0.0000000
 AtZNuc=   6.0000000   7.0000000   1.0000000   1.0000000   7.0000000   6.0000000   7.0000000   1.0000000   6.0000000   8.0000000

  Atom        31          32          33          34          35          36          37          38          39          40
 IAtWgt=          12          14          12           1           1           1           1           1           1           1
 AtmWgt=  12.0000000  14.0030740  12.0000000   1.0078250   1.0078250   1.0078250   1.0078250   1.0078250   1.0078250   1.0078250
 NucSpn=           0           2           0           1           1           1           1           1           1           1
 AtZEff=  -0.0000000  -0.0000000  -0.0000000  -0.0000000  -0.0000000  -0.0000000  -0.0000000  -0.0000000  -0.0000000  -0.0000000
 NQMom=    0.0000000   2.0440000   0.0000000   0.0000000   0.0000000   0.0000000   0.0000000   0.0000000   0.0000000   0.0000000
 NMagM=    0.0000000   0.4037610   0.0000000   2.7928460   2.7928460   2.7928460   2.7928460   2.7928460   2.7928460   2.7928460
 AtZNuc=   6.0000000   7.0000000   6.0000000   1.0000000   1.0000000   1.0000000   1.0000000   1.0000000   1.0000000   1.0000000

  Atom        41          42          43          44          45          46          47          48          49          50
 IAtWgt=           1          12          16          12           1          14          16          12           1          12
 AtmWgt=   1.0078250  12.0000000  15.9949146  12.0000000   1.0078250  14.0030740  15.9949146  12.0000000   1.0078250  12.0000000
 NucSpn=           1           0           0           0           1           2           0           0           1           0
 AtZEff=  -0.0000000  -0.0000000  -0.0000000  -0.0000000  -0.0000000  -0.0000000  -0.0000000  -0.0000000  -0.0000000  -0.0000000
 NQMom=    0.0000000   0.0000000   0.0000000   0.0000000   0.0000000   2.0440000   0.0000000   0.0000000   0.0000000   0.0000000
 NMagM=    2.7928460   0.0000000   0.0000000   0.0000000   2.7928460   0.4037610   0.0000000   0.0000000   2.7928460   0.0000000
 AtZNuc=   1.0000000   6.0000000   8.0000000   6.0000000   1.0000000   7.0000000   8.0000000   6.0000000   1.0000000   6.0000000

  Atom        51          52          53          54          55          56          57          58          59          60
 IAtWgt=          12          14           1           1           1           1           1          14          12          12
 AtmWgt=  12.0000000  14.0030740   1.0078250   1.0078250   1.0078250   1.0078250   1.0078250  14.0030740  12.0000000  12.0000000
 NucSpn=           0           2           1           1           1           1           1           2           0           0
 AtZEff=  -0.0000000  -0.0000000  -0.0000000  -0.0000000  -0.0000000  -0.0000000  -0.0000000  -0.0000000  -0.0000000  -0.0000000
 NQMom=    0.0000000   2.0440000   0.0000000   0.0000000   0.0000000   0.0000000   0.0000000   2.0440000   0.0000000   0.0000000
 NMagM=    0.0000000   0.4037610   2.7928460   2.7928460   2.7928460   2.7928460   2.7928460   0.4037610   0.0000000   0.0000000
 AtZNuc=   6.0000000   7.0000000   1.0000000   1.0000000   1.0000000   1.0000000   1.0000000   7.0000000   6.0000000   6.0000000

  Atom        61          62          63          64          65          66          67          68          69          70
 IAtWgt=          14           1          12          14           1          12          14          12          12          14
 AtmWgt=  14.0030740   1.0078250  12.0000000  14.0030740   1.0078250  12.0000000  14.0030740  12.0000000  12.0000000  14.0030740
 NucSpn=           2           1           0           2           1           0           2           0           0           2
 AtZEff=  -0.0000000  -0.0000000  -0.0000000  -0.0000000  -0.0000000  -0.0000000  -0.0000000  -0.0000000  -0.0000000  -0.0000000
 NQMom=    2.0440000   0.0000000   0.0000000   2.0440000   0.0000000   0.0000000   2.0440000   0.0000000   0.0000000   2.0440000
 NMagM=    0.4037610   2.7928460   0.0000000   0.4037610   2.7928460   0.0000000   0.4037610   0.0000000   0.0000000   0.4037610
 AtZNuc=   7.0000000   1.0000000   6.0000000   7.0000000   1.0000000   6.0000000   7.0000000   6.0000000   6.0000000   7.0000000
 Leave Link  101 at Sat Jan 20 09:42:01 2018, MaxMem=  4294967296 cpu:               7.1 elap:               0.3
 (Enter /share/apps/g16/l202.exe)
 Stoichiometry    C23H27N17O3
 Framework group  C1[X(C23H27N17O3)]
 Deg. of freedom   204
 Full point group                 C1      NOp   1
 Largest Abelian subgroup         C1      NOp   1
 Largest concise Abelian subgroup C1      NOp   1
                         Standard orientation:                         
 ---------------------------------------------------------------------
 Center     Atomic      Atomic             Coordinates (Angstroms)
 Number     Number       Type             X           Y           Z
 ---------------------------------------------------------------------
      1          7           0        6.056357   -1.235368   -0.833887
      2          6           0        7.386688   -0.599616   -0.897478
      3          6           0        3.888142   -1.596174   -0.911285
      4          7           0        4.469051   -2.800639   -0.541782
      5          6           0        5.752070   -2.535062   -0.509941
      6          1           0        6.528428   -3.256717   -0.254153
      7          7           0        2.313008    0.063754   -1.482727
      8          6           0        3.351917    0.893767   -1.621788
      9          1           0        3.097984    1.911517   -1.914990
     10          7           0        4.651292    0.656452   -1.453829
     11          6           0        4.853980   -0.622015   -1.094850
     12          6           0        2.550019   -1.216010   -1.120647
     13          7           0        1.514273   -2.046063   -0.981323
     14          1           0        1.642904   -3.001901   -0.714771
     15          1           0        0.574945   -1.740951   -1.138541
     16          1           0        7.952326   -1.073809   -1.572292
     17          1           0        7.286512    0.358958   -1.162478
     18          1           0        7.826468   -0.651615   -0.000883
     19          7           0        3.947487    1.724156    1.337649
     20          6           0        2.581956    1.766102    1.190630
     21          6           0        4.880164    2.805697    0.962061
     22          7           0       -0.285693    3.453985    0.195952
     23          1           0       -1.270819    3.285703    0.175016
     24          1           0        0.031349    4.336492   -0.152470
     25          7           0        1.868535    2.794128    0.682440
     26          6           0        0.572442    2.538020    0.669776
     27          7           0        0.015574    1.365497    1.119887
     28          1           0       -0.985829    1.256622    1.071940
     29          6           0        0.730376    0.294333    1.646705
     30          8           0        0.130764   -0.719689    2.024822
     31          6           0        2.124179    0.554687    1.666779
     32          7           0        3.181048   -0.231962    2.103927
     33          6           0        4.239928    0.500917    1.889760
     34          1           0        5.262176    0.196437    2.116901
     35          1           0        5.524322    2.469311    0.275975
     36          1           0        4.363068    3.572654    0.584357
     37          1           0        5.383120    3.110018    1.770286
     38          1           0       -5.946352    1.082445   -0.030605
     39          1           0       -6.127042    1.507125    1.669884
     40          1           0       -4.726454    2.079164    0.762972
     41          1           0       -5.161265   -3.192014    2.033181
     42          6           0       -4.636624   -2.253361    1.854511
     43          8           0       -2.489494   -3.154243    2.307647
     44          6           0       -3.213169   -2.209178    1.994728
     45          1           0       -1.645425   -0.903409    1.835215
     46          7           0       -2.649319   -0.974051    1.746184
     47          8           0       -2.716730    1.226564    1.189448
     48          6           0       -3.304248    0.177898    1.388909
     49          1           0       -6.385665   -1.127101    1.387388
     50          6           0       -5.303255   -1.146300    1.507197
     51          6           0       -5.417710    1.259963    0.894105
     52          7           0       -4.674978    0.055048    1.273939
     53          1           0       -4.866025    3.016512   -3.039966
     54          1           0       -3.655039    3.249696   -1.971685
     55          1           0       -5.194498    3.121165   -1.444793
     56          1           0       -1.857607   -3.500075   -1.156073
     57          1           0       -3.516423   -3.316349   -1.509154
     58          7           0       -2.624696   -2.889742   -1.354073
     59          6           0       -2.466614   -1.565677   -1.409113
     60          6           0       -3.192823    0.680583   -1.706854
     61          7           0       -1.983649    1.225728   -1.494377
     62          1           0       -0.069220    0.635376   -1.061873
     63          6           0       -1.081524    0.278336   -1.246335
     64          7           0       -1.237891   -1.048323   -1.190770
     65          1           0       -6.359694    0.601555   -2.352523
     66          6           0       -5.321627    0.359171   -2.123144
     67          7           0       -4.861104   -0.855333   -1.948211
     68          6           0       -3.512480   -0.665820   -1.683557
     69          6           0       -4.533831    2.797897   -2.122440
     70          7           0       -4.366482    1.337473   -1.991507
 ---------------------------------------------------------------------
 Rotational constants (GHZ):           0.1671104           0.0535645           0.0510059
 Leave Link  202 at Sat Jan 20 09:42:01 2018, MaxMem=  4294967296 cpu:               0.3 elap:               0.0
 (Enter /share/apps/g16/l301.exe)
 Standard basis: CC-pVDZ (5D, 7F)
 Ernie: Thresh=  0.10000D-02 Tol=  0.10000D-05 Strict=F.
 Ernie:  86 primitive shells out of 1081 were deleted.
 There are   780 symmetry adapted cartesian basis functions of A   symmetry.
 There are   737 symmetry adapted basis functions of A   symmetry.
   737 basis functions,  1608 primitive gaussians,   780 cartesian basis functions
   154 alpha electrons      154 beta electrons
       nuclear repulsion energy      5604.8711163198 Hartrees.
 IExCor= 4639 DFT=T Ex+Corr=wB97XD ExCW=0 ScaHFX=  1.000000
 ScaDFX=  1.000000  1.000000  1.000000  1.000000 ScalE2=  1.000000  1.000000
 IRadAn=      5 IRanWt=     -1 IRanGd=            0 ICorTp=0 IEmpDi=121
 HFx  wShort=  0.000000 wLong=  0.200000 cFull=  0.222036 cShort=  0.000000 cLong=  0.777964
 DFx  wShort=  0.000000 wLong=  0.200000 cFull=  0.000000 cShort=  0.000000 cLong=  1.000000
 NAtoms=   70 NActive=   70 NUniq=   70 SFac= 1.00D+00 NAtFMM=   60 NAOKFM=T Big=T
 Integral buffers will be    131072 words long.
 Raffenetti 2 integral format.
 Two-electron integral symmetry is turned on.
 R6Disp:  Grimme-D2 Dispersion energy=       -0.0790406028 Hartrees.
 Nuclear repulsion after empirical dispersion term =     5604.7920757169 Hartrees.
 Leave Link  301 at Sat Jan 20 09:42:01 2018, MaxMem=  4294967296 cpu:               2.1 elap:               0.1
 (Enter /share/apps/g16/l302.exe)
 NPDir=0 NMtPBC=     1 NCelOv=     1 NCel=       1 NClECP=     1 NCelD=      1
         NCelK=      1 NCelE2=     1 NClLst=     1 CellRange=     0.0.
 One-electron integrals computed using PRISM.
 One-electron integral symmetry used in STVInt
 NBasis=   737 RedAO= T EigKep=  6.73D-04  NBF=   737
 NBsUse=   737 1.00D-06 EigRej= -1.00D+00 NBFU=   737
 Precomputing XC quadrature grid using
 IXCGrd= 4 IRadAn=           5 IRanWt=          -1 IRanGd=           0 AccXCQ= 0.00D+00.
 Generated NRdTot=       0 NPtTot=           0 NUsed=           0 NTot=          32
 NSgBfM=   769   769   769   769   769 MxSgAt=    70 MxSgA2=    70.
 Leave Link  302 at Sat Jan 20 09:42:06 2018, MaxMem=  4294967296 cpu:             134.1 elap:               4.2
 (Enter /share/apps/g16/l303.exe)
 DipDrv:  MaxL=1.
 Leave Link  303 at Sat Jan 20 09:42:06 2018, MaxMem=  4294967296 cpu:              12.9 elap:               0.5
 (Enter /share/apps/g16/l401.exe)
 ExpMin= 1.22D-01 ExpMax= 1.17D+04 ExpMxC= 4.01D+02 IAcc=3 IRadAn=         5 AccDes= 0.00D+00
 Harris functional with IExCor= 4639 and IRadAn=       5 diagonalized for initial guess.
 HarFok:  IExCor= 4639 AccDes= 0.00D+00 IRadAn=         5 IDoV= 1 UseB2=F ITyADJ=14
 ICtDFT=  3500011 ScaDFX=  1.000000  1.000000  1.000000  1.000000
 FoFCou: FMM=F IPFlag=           0 FMFlag=      100000 FMFlg1=        2001
         NFxFlg=           0 DoJE=T BraDBF=F KetDBF=T FulRan=T
         wScrn=  0.000000 ICntrl=       500 IOpCl=  0 I1Cent=   200000004 NGrid=           0
         NMat0=    1 NMatS0=      1 NMatT0=    0 NMatD0=    1 NMtDS0=    0 NMtDT0=    0
 Petite list used in FoFCou.
 Harris En= -1963.87935784735    
 JPrj=0 DoOrth=F DoCkMO=F.
 Leave Link  401 at Sat Jan 20 09:42:19 2018, MaxMem=  4294967296 cpu:             413.2 elap:              13.0
 (Enter /share/apps/g16/l502.exe)
 Integral symmetry usage will be decided dynamically.
 Closed shell SCF:
 Using DIIS extrapolation, IDIIS=  1040.
 NGot=  4294967296 LenX=  4293717438 LenY=  4293108258
 Requested convergence on RMS density matrix=1.00D-08 within  20 cycles.
 Requested convergence on MAX density matrix=1.00D-06.
 Requested convergence on             energy=1.00D-06.
 No special actions if energy rises.
 Fock matrices will be formed incrementally for  20 cycles.
 Integral accuracy reduced to 1.0D-05 until final iterations.

 Cycle   1  Pass 0  IDiag  1:
 FoFJK:  IHMeth= 1 ICntrl=       0 DoSepK=T KAlg= 0 I1Cent=           0 FoldK=F
 IRaf=         1 NMat=       1 IRICut=       1 DoRegI=T DoRafI=F ISym2E= 0 IDoP0=0 IntGTp=1.
 FoFCou: FMM=T IPFlag=           0 FMFlag=      100000 FMFlg1=        2001
         NFxFlg=           0 DoJE=T BraDBF=F KetDBF=F FulRan=T
         wScrn=  0.000000 ICntrl=       500 IOpCl=  0 I1Cent=           0 NGrid=           0
         NMat0=    1 NMatS0=      1 NMatT0=    0 NMatD0=    1 NMtDS0=    0 NMtDT0=    0
 Symmetry not used in FoFCou.
 FMM levels:  10  Number of levels for PrismC:   9
 E= -2048.31265235043    
 DIIS: error= 2.33D-02 at cycle   1 NSaved=   1.
 NSaved= 1 IEnMin= 1 EnMin= -2048.31265235043     IErMin= 1 ErrMin= 2.33D-02
 ErrMax= 2.33D-02  0.00D+00 EMaxC= 1.00D-01 BMatC= 8.33D-01 BMatP= 8.33D-01
 IDIUse=3 WtCom= 7.67D-01 WtEn= 2.33D-01
 Coeff-Com:  0.100D+01
 Coeff-En:   0.100D+01
 Coeff:      0.100D+01
 Gap=     0.253 Goal=   None    Shift=    0.000
 GapD=    0.253 DampG=1.000 DampE=0.500 DampFc=0.5000 IDamp=-1.
 Damping current iteration by 5.00D-01
 RMSDP=1.58D-03 MaxDP=1.30D-01              OVMax= 2.07D-01

 Cycle   2  Pass 0  IDiag  1:
 RMSU=  7.91D-04    CP:  9.98D-01
 E= -2048.50894472687     Delta-E=       -0.196292376433 Rises=F Damp=T
 DIIS: error= 1.10D-02 at cycle   2 NSaved=   2.
 NSaved= 2 IEnMin= 2 EnMin= -2048.50894472687     IErMin= 2 ErrMin= 1.10D-02
 ErrMax= 1.10D-02  0.00D+00 EMaxC= 1.00D-01 BMatC= 1.46D-01 BMatP= 8.33D-01
 IDIUse=3 WtCom= 8.90D-01 WtEn= 1.10D-01
 Coeff-Com: -0.191D+00 0.119D+01
 Coeff-En:   0.000D+00 0.100D+01
 Coeff:     -0.170D+00 0.117D+01
 Gap=     0.351 Goal=   None    Shift=    0.000
 RMSDP=5.94D-04 MaxDP=3.50D-02 DE=-1.96D-01 OVMax= 1.28D-01

 Cycle   3  Pass 0  IDiag  1:
 RMSU=  5.86D-04    CP:  9.94D-01  1.12D+00
 E= -2048.68659262949     Delta-E=       -0.177647902621 Rises=F Damp=F
 DIIS: error= 8.00D-03 at cycle   3 NSaved=   3.
 NSaved= 3 IEnMin= 3 EnMin= -2048.68659262949     IErMin= 3 ErrMin= 8.00D-03
 ErrMax= 8.00D-03  0.00D+00 EMaxC= 1.00D-01 BMatC= 6.68D-02 BMatP= 1.46D-01
 IDIUse=3 WtCom= 9.20D-01 WtEn= 8.00D-02
 Coeff-Com: -0.234D+00 0.556D+00 0.677D+00
 Coeff-En:   0.000D+00 0.000D+00 0.100D+01
 Coeff:     -0.215D+00 0.512D+00 0.703D+00
 Gap=     0.280 Goal=   None    Shift=    0.000
 RMSDP=3.75D-04 MaxDP=3.37D-02 DE=-1.78D-01 OVMax= 7.09D-02

 Cycle   4  Pass 0  IDiag  1:
 RMSU=  2.09D-04    CP:  9.94D-01  1.42D+00  6.56D-01
 E= -2048.73682271167     Delta-E=       -0.050230082179 Rises=F Damp=F
 DIIS: error= 2.66D-03 at cycle   4 NSaved=   4.
 NSaved= 4 IEnMin= 4 EnMin= -2048.73682271167     IErMin= 4 ErrMin= 2.66D-03
 ErrMax= 2.66D-03  0.00D+00 EMaxC= 1.00D-01 BMatC= 1.00D-02 BMatP= 6.68D-02
 IDIUse=3 WtCom= 9.73D-01 WtEn= 2.66D-02
 Coeff-Com: -0.962D-01 0.186D+00 0.380D+00 0.530D+00
 Coeff-En:   0.000D+00 0.000D+00 0.782D-01 0.922D+00
 Coeff:     -0.936D-01 0.181D+00 0.372D+00 0.541D+00
 Gap=     0.283 Goal=   None    Shift=    0.000
 RMSDP=1.33D-04 MaxDP=1.15D-02 DE=-5.02D-02 OVMax= 1.61D-02

 Cycle   5  Pass 0  IDiag  1:
 RMSU=  6.22D-05    CP:  9.94D-01  1.38D+00  7.95D-01  6.15D-01
 E= -2048.74517653131     Delta-E=       -0.008353819642 Rises=F Damp=F
 DIIS: error= 5.21D-04 at cycle   5 NSaved=   5.
 NSaved= 5 IEnMin= 5 EnMin= -2048.74517653131     IErMin= 5 ErrMin= 5.21D-04
 ErrMax= 5.21D-04  0.00D+00 EMaxC= 1.00D-01 BMatC= 2.94D-04 BMatP= 1.00D-02
 IDIUse=3 WtCom= 9.95D-01 WtEn= 5.21D-03
 Coeff-Com: -0.248D-01 0.424D-01 0.122D+00 0.237D+00 0.624D+00
 Coeff-En:   0.000D+00 0.000D+00 0.000D+00 0.000D+00 0.100D+01
 Coeff:     -0.247D-01 0.422D-01 0.122D+00 0.235D+00 0.626D+00
 Gap=     0.283 Goal=   None    Shift=    0.000
 RMSDP=2.68D-05 MaxDP=1.69D-03 DE=-8.35D-03 OVMax= 3.40D-03

 Failed to achieve initial convergence to 1.0D-08 in  6 cycles.
 Switch to full accuracy anyway.
 Cycle   6  Pass 1  IDiag  1:
 E= -2048.74528023465     Delta-E=       -0.000103703338 Rises=F Damp=F
 DIIS: error= 2.12D-04 at cycle   1 NSaved=   1.
 NSaved= 1 IEnMin= 1 EnMin= -2048.74528023465     IErMin= 1 ErrMin= 2.12D-04
 ErrMax= 2.12D-04  0.00D+00 EMaxC= 1.00D-01 BMatC= 7.84D-05 BMatP= 7.84D-05
 IDIUse=3 WtCom= 9.98D-01 WtEn= 2.12D-03
 Coeff-Com:  0.100D+01
 Coeff-En:   0.100D+01
 Coeff:      0.100D+01
 Gap=     0.283 Goal=   None    Shift=    0.000
 RMSDP=2.68D-05 MaxDP=1.69D-03 DE=-1.04D-04 OVMax= 2.58D-03

 Cycle   7  Pass 1  IDiag  1:
 RMSU=  1.14D-04    CP:  1.00D+00
 E= -2048.74533706342     Delta-E=       -0.000056828771 Rises=F Damp=F
 DIIS: error= 2.21D-04 at cycle   2 NSaved=   2.
 NSaved= 2 IEnMin= 2 EnMin= -2048.74533706342     IErMin= 1 ErrMin= 2.12D-04
 ErrMax= 2.21D-04  0.00D+00 EMaxC= 1.00D-01 BMatC= 4.45D-05 BMatP= 7.84D-05
 IDIUse=3 WtCom= 9.98D-01 WtEn= 2.21D-03
 Coeff-Com:  0.405D+00 0.595D+00
 Coeff-En:   0.000D+00 0.100D+01
 Coeff:      0.404D+00 0.596D+00
 Gap=     0.283 Goal=   None    Shift=    0.000
 RMSDP=1.18D-05 MaxDP=9.62D-04 DE=-5.68D-05 OVMax= 1.69D-03

 Cycle   8  Pass 1  IDiag  1:
 RMSU=  1.15D-05    CP:  1.00D+00  1.02D+00
 E= -2048.74536974728     Delta-E=       -0.000032683858 Rises=F Damp=F
 DIIS: error= 8.88D-05 at cycle   3 NSaved=   3.
 NSaved= 3 IEnMin= 3 EnMin= -2048.74536974728     IErMin= 3 ErrMin= 8.88D-05
 ErrMax= 8.88D-05  0.00D+00 EMaxC= 1.00D-01 BMatC= 1.07D-05 BMatP= 4.45D-05
 IDIUse=1 WtCom= 1.00D+00 WtEn= 0.00D+00
 Coeff-Com: -0.194D-01 0.316D+00 0.704D+00
 Coeff:     -0.194D-01 0.316D+00 0.704D+00
 Gap=     0.283 Goal=   None    Shift=    0.000
 RMSDP=5.75D-06 MaxDP=4.24D-04 DE=-3.27D-05 OVMax= 6.54D-04

 Cycle   9  Pass 1  IDiag  1:
 RMSU=  3.92D-06    CP:  1.00D+00  1.05D+00  7.58D-01
 E= -2048.74538004778     Delta-E=       -0.000010300500 Rises=F Damp=F
 DIIS: error= 2.00D-05 at cycle   4 NSaved=   4.
 NSaved= 4 IEnMin= 4 EnMin= -2048.74538004778     IErMin= 4 ErrMin= 2.00D-05
 ErrMax= 2.00D-05  0.00D+00 EMaxC= 1.00D-01 BMatC= 5.36D-07 BMatP= 1.07D-05
 IDIUse=1 WtCom= 1.00D+00 WtEn= 0.00D+00
 Coeff-Com: -0.301D-01 0.884D-01 0.266D+00 0.675D+00
 Coeff:     -0.301D-01 0.884D-01 0.266D+00 0.675D+00
 Gap=     0.283 Goal=   None    Shift=    0.000
 RMSDP=1.47D-06 MaxDP=1.23D-04 DE=-1.03D-05 OVMax= 4.77D-04

 Cycle  10  Pass 1  IDiag  1:
 RMSU=  1.31D-06    CP:  1.00D+00  1.05D+00  7.95D-01  1.10D+00
 E= -2048.74538092382     Delta-E=       -0.000000876046 Rises=F Damp=F
 DIIS: error= 9.45D-06 at cycle   5 NSaved=   5.
 NSaved= 5 IEnMin= 5 EnMin= -2048.74538092382     IErMin= 5 ErrMin= 9.45D-06
 ErrMax= 9.45D-06  0.00D+00 EMaxC= 1.00D-01 BMatC= 1.25D-07 BMatP= 5.36D-07
 IDIUse=1 WtCom= 1.00D+00 WtEn= 0.00D+00
 Coeff-Com: -0.332D-02-0.560D-01-0.115D+00 0.208D+00 0.966D+00
 Coeff:     -0.332D-02-0.560D-01-0.115D+00 0.208D+00 0.966D+00
 Gap=     0.283 Goal=   None    Shift=    0.000
 RMSDP=1.22D-06 MaxDP=7.48D-05 DE=-8.76D-07 OVMax= 2.38D-04

 Cycle  11  Pass 1  IDiag  1:
 RMSU=  4.98D-07    CP:  1.00D+00  1.06D+00  8.08D-01  1.37D+00  1.17D+00
 E= -2048.74538119392     Delta-E=       -0.000000270102 Rises=F Damp=F
 DIIS: error= 6.07D-06 at cycle   6 NSaved=   6.
 NSaved= 6 IEnMin= 6 EnMin= -2048.74538119392     IErMin= 6 ErrMin= 6.07D-06
 ErrMax= 6.07D-06  0.00D+00 EMaxC= 1.00D-01 BMatC= 3.07D-08 BMatP= 1.25D-07
 IDIUse=1 WtCom= 1.00D+00 WtEn= 0.00D+00
 Coeff-Com:  0.464D-02-0.469D-01-0.115D+00-0.327D-02 0.522D+00 0.639D+00
 Coeff:      0.464D-02-0.469D-01-0.115D+00-0.327D-02 0.522D+00 0.639D+00
 Gap=     0.283 Goal=   None    Shift=    0.000
 RMSDP=3.91D-07 MaxDP=3.65D-05 DE=-2.70D-07 OVMax= 1.27D-04

 Cycle  12  Pass 1  IDiag  1:
 RMSU=  1.90D-07    CP:  1.00D+00  1.06D+00  8.10D-01  1.45D+00  1.30D+00
                    CP:  9.35D-01
 E= -2048.74538123879     Delta-E=       -0.000000044870 Rises=F Damp=F
 DIIS: error= 1.34D-06 at cycle   7 NSaved=   7.
 NSaved= 7 IEnMin= 7 EnMin= -2048.74538123879     IErMin= 7 ErrMin= 1.34D-06
 ErrMax= 1.34D-06  0.00D+00 EMaxC= 1.00D-01 BMatC= 8.28D-10 BMatP= 3.07D-08
 IDIUse=1 WtCom= 1.00D+00 WtEn= 0.00D+00
 Coeff-Com:  0.113D-02-0.791D-02-0.208D-01-0.903D-02 0.607D-01 0.138D+00
 Coeff-Com:  0.837D+00
 Coeff:      0.113D-02-0.791D-02-0.208D-01-0.903D-02 0.607D-01 0.138D+00
 Coeff:      0.837D+00
 Gap=     0.283 Goal=   None    Shift=    0.000
 RMSDP=8.62D-08 MaxDP=5.08D-06 DE=-4.49D-08 OVMax= 2.28D-05

 Cycle  13  Pass 1  IDiag  1:
 RMSU=  5.04D-08    CP:  1.00D+00  1.06D+00  8.10D-01  1.45D+00  1.32D+00
                    CP:  1.02D+00  1.15D+00
 E= -2048.74538124065     Delta-E=       -0.000000001855 Rises=F Damp=F
 DIIS: error= 7.51D-07 at cycle   8 NSaved=   8.
 NSaved= 8 IEnMin= 8 EnMin= -2048.74538124065     IErMin= 8 ErrMin= 7.51D-07
 ErrMax= 7.51D-07  0.00D+00 EMaxC= 1.00D-01 BMatC= 3.47D-10 BMatP= 8.28D-10
 IDIUse=1 WtCom= 1.00D+00 WtEn= 0.00D+00
 Coeff-Com: -0.728D-03 0.915D-02 0.216D-01-0.191D-02-0.114D+00-0.105D+00
 Coeff-Com:  0.423D+00 0.768D+00
 Coeff:     -0.728D-03 0.915D-02 0.216D-01-0.191D-02-0.114D+00-0.105D+00
 Coeff:      0.423D+00 0.768D+00
 Gap=     0.283 Goal=   None    Shift=    0.000
 RMSDP=4.89D-08 MaxDP=3.04D-06 DE=-1.86D-09 OVMax= 1.14D-05

 Cycle  14  Pass 1  IDiag  1:
 RMSU=  2.81D-08    CP:  1.00D+00  1.06D+00  8.10D-01  1.46D+00  1.33D+00
                    CP:  1.07D+00  1.30D+00  1.11D+00
 E= -2048.74538124100     Delta-E=       -0.000000000350 Rises=F Damp=F
 DIIS: error= 2.31D-07 at cycle   9 NSaved=   9.
 NSaved= 9 IEnMin= 9 EnMin= -2048.74538124100     IErMin= 9 ErrMin= 2.31D-07
 ErrMax= 2.31D-07  0.00D+00 EMaxC= 1.00D-01 BMatC= 3.14D-11 BMatP= 3.47D-10
 IDIUse=1 WtCom= 1.00D+00 WtEn= 0.00D+00
 Coeff-Com: -0.421D-03 0.465D-02 0.112D-01 0.363D-03-0.527D-01-0.586D-01
 Coeff-Com:  0.807D-01 0.298D+00 0.716D+00
 Coeff:     -0.421D-03 0.465D-02 0.112D-01 0.363D-03-0.527D-01-0.586D-01
 Coeff:      0.807D-01 0.298D+00 0.716D+00
 Gap=     0.283 Goal=   None    Shift=    0.000
 RMSDP=1.40D-08 MaxDP=9.35D-07 DE=-3.50D-10 OVMax= 3.43D-06

 Cycle  15  Pass 1  IDiag  1:
 RMSU=  9.32D-09    CP:  1.00D+00  1.06D+00  8.10D-01  1.46D+00  1.33D+00
                    CP:  1.07D+00  1.33D+00  1.25D+00  1.12D+00
 E= -2048.74538124139     Delta-E=       -0.000000000387 Rises=F Damp=F
 DIIS: error= 7.85D-08 at cycle  10 NSaved=  10.
 NSaved=10 IEnMin=10 EnMin= -2048.74538124139     IErMin=10 ErrMin= 7.85D-08
 ErrMax= 7.85D-08  0.00D+00 EMaxC= 1.00D-01 BMatC= 5.47D-12 BMatP= 3.14D-11
 IDIUse=1 WtCom= 1.00D+00 WtEn= 0.00D+00
 Coeff-Com:  0.942D-05-0.355D-03-0.758D-03 0.218D-03 0.589D-02 0.193D-02
 Coeff-Com: -0.561D-01-0.601D-01 0.268D+00 0.841D+00
 Coeff:      0.942D-05-0.355D-03-0.758D-03 0.218D-03 0.589D-02 0.193D-02
 Coeff:     -0.561D-01-0.601D-01 0.268D+00 0.841D+00
 Gap=     0.283 Goal=   None    Shift=    0.000
 RMSDP=6.96D-09 MaxDP=3.89D-07 DE=-3.87D-10 OVMax= 1.41D-06

 SCF Done:  E(RwB97XD) =  -2048.74538124     A.U. after   15 cycles
            NFock= 15  Conv=0.70D-08     -V/T= 2.0054
 KE= 2.037821067011D+03 PE=-1.599025023982D+04 EE= 6.298891715852D+03
 Leave Link  502 at Sat Jan 20 09:54:18 2018, MaxMem=  4294967296 cpu:           22278.1 elap:             718.6
 (Enter /share/apps/g16/l601.exe)
 Copying SCF densities to generalized density rwf, IOpCl= 0 IROHF=0.

 **********************************************************************

            Population analysis using the SCF density.

 **********************************************************************

 Orbital symmetries:
       Occupied  (A) (A) (A) (A) (A) (A) (A) (A) (A) (A) (A) (A)
                 (A) (A) (A) (A) (A) (A) (A) (A) (A) (A) (A) (A)
                 (A) (A) (A) (A) (A) (A) (A) (A) (A) (A) (A) (A)
                 (A) (A) (A) (A) (A) (A) (A) (A) (A) (A) (A) (A)
                 (A) (A) (A) (A) (A) (A) (A) (A) (A) (A) (A) (A)
                 (A) (A) (A) (A) (A) (A) (A) (A) (A) (A) (A) (A)
                 (A) (A) (A) (A) (A) (A) (A) (A) (A) (A) (A) (A)
                 (A) (A) (A) (A) (A) (A) (A) (A) (A) (A) (A) (A)
                 (A) (A) (A) (A) (A) (A) (A) (A) (A) (A) (A) (A)
                 (A) (A) (A) (A) (A) (A) (A) (A) (A) (A) (A) (A)
                 (A) (A) (A) (A) (A) (A) (A) (A) (A) (A) (A) (A)
                 (A) (A) (A) (A) (A) (A) (A) (A) (A) (A) (A) (A)
                 (A) (A) (A) (A) (A) (A) (A) (A) (A) (A)
       Virtual   (A) (A) (A) (A) (A) (A) (A) (A) (A) (A) (A) (A)
                 (A) (A) (A) (A) (A) (A) (A) (A) (A) (A) (A) (A)
                 (A) (A) (A) (A) (A) (A) (A) (A) (A) (A) (A) (A)
                 (A) (A) (A) (A) (A) (A) (A) (A) (A) (A) (A) (A)
                 (A) (A) (A) (A) (A) (A) (A) (A) (A) (A) (A) (A)
                 (A) (A) (A) (A) (A) (A) (A) (A) (A) (A) (A) (A)
                 (A) (A) (A) (A) (A) (A) (A) (A) (A) (A) (A) (A)
                 (A) (A) (A) (A) (A) (A) (A) (A) (A) (A) (A) (A)
                 (A) (A) (A) (A) (A) (A) (A) (A) (A) (A) (A) (A)
                 (A) (A) (A) (A) (A) (A) (A) (A) (A) (A) (A) (A)
                 (A) (A) (A) (A) (A) (A) (A) (A) (A) (A) (A) (A)
                 (A) (A) (A) (A) (A) (A) (A) (A) (A) (A) (A) (A)
                 (A) (A) (A) (A) (A) (A) (A) (A) (A) (A) (A) (A)
                 (A) (A) (A) (A) (A) (A) (A) (A) (A) (A) (A) (A)
                 (A) (A) (A) (A) (A) (A) (A) (A) (A) (A) (A) (A)
                 (A) (A) (A) (A) (A) (A) (A) (A) (A) (A) (A) (A)
                 (A) (A) (A) (A) (A) (A) (A) (A) (A) (A) (A) (A)
                 (A) (A) (A) (A) (A) (A) (A) (A) (A) (A) (A) (A)
                 (A) (A) (A) (A) (A) (A) (A) (A) (A) (A) (A) (A)
                 (A) (A) (A) (A) (A) (A) (A) (A) (A) (A) (A) (A)
                 (A) (A) (A) (A) (A) (A) (A) (A) (A) (A) (A) (A)
                 (A) (A) (A) (A) (A) (A) (A) (A) (A) (A) (A) (A)
                 (A) (A) (A) (A) (A) (A) (A) (A) (A) (A) (A) (A)
                 (A) (A) (A) (A) (A) (A) (A) (A) (A) (A) (A) (A)
                 (A) (A) (A) (A) (A) (A) (A) (A) (A) (A) (A) (A)
                 (A) (A) (A) (A) (A) (A) (A) (A) (A) (A) (A) (A)
                 (A) (A) (A) (A) (A) (A) (A) (A) (A) (A) (A) (A)
                 (A) (A) (A) (A) (A) (A) (A) (A) (A) (A) (A) (A)
                 (A) (A) (A) (A) (A) (A) (A) (A) (A) (A) (A) (A)
                 (A) (A) (A) (A) (A) (A) (A) (A) (A) (A) (A) (A)
                 (A) (A) (A) (A) (A) (A) (A) (A) (A) (A) (A) (A)
                 (A) (A) (A) (A) (A) (A) (A) (A) (A) (A) (A) (A)
                 (A) (A) (A) (A) (A) (A) (A) (A) (A) (A) (A) (A)
                 (A) (A) (A) (A) (A) (A) (A) (A) (A) (A) (A) (A)
                 (A) (A) (A) (A) (A) (A) (A) (A) (A) (A) (A) (A)
                 (A) (A) (A) (A) (A) (A) (A) (A) (A) (A) (A) (A)
                 (A) (A) (A) (A) (A) (A) (A) (A) (A) (A) (A) (A)
                 (A) (A) (A) (A) (A) (A) (A) (A) (A) (A) (A) (A)
                 (A) (A) (A) (A) (A) (A) (A) (A) (A) (A) (A) (A)
                 (A) (A) (A) (A) (A) (A) (A) (A) (A) (A) (A) (A)
                 (A) (A) (A) (A) (A) (A) (A) (A) (A) (A) (A) (A)
                 (A) (A) (A) (A) (A) (A) (A) (A) (A) (A) (A) (A)
                 (A) (A) (A) (A) (A) (A) (A) (A) (A) (A) (A) (A)
                 (A) (A) (A) (A) (A) (A) (A) (A) (A) (A) (A) (A)
                 (A) (A) (A) (A) (A) (A) (A) (A) (A) (A) (A) (A)
                 (A) (A) (A) (A) (A) (A) (A) (A) (A) (A) (A) (A)
                 (A) (A) (A) (A) (A) (A) (A) (A) (A) (A) (A) (A)
                 (A) (A) (A) (A) (A) (A) (A) (A) (A) (A) (A) (A)
                 (A) (A) (A) (A) (A) (A) (A)
 The electronic state is 1-A.
 Alpha  occ. eigenvalues --  -19.25543 -19.21711 -19.20454 -14.52353 -14.52206
 Alpha  occ. eigenvalues --  -14.49370 -14.48278 -14.47735 -14.47550 -14.46621
 Alpha  occ. eigenvalues --  -14.46204 -14.45429 -14.44015 -14.43957 -14.42889
 Alpha  occ. eigenvalues --  -14.41885 -14.41745 -14.41571 -14.40746 -14.40565
 Alpha  occ. eigenvalues --  -10.45170 -10.40917 -10.39838 -10.39646 -10.37991
 Alpha  occ. eigenvalues --  -10.37934 -10.37470 -10.37035 -10.36004 -10.35414
 Alpha  occ. eigenvalues --  -10.35242 -10.34559 -10.34193 -10.33917 -10.33902
 Alpha  occ. eigenvalues --  -10.33586 -10.33026 -10.32444 -10.31698 -10.30720
 Alpha  occ. eigenvalues --  -10.29995 -10.29017 -10.27724  -1.19242  -1.15140
 Alpha  occ. eigenvalues --   -1.12980  -1.12740  -1.11901  -1.10256  -1.09145
 Alpha  occ. eigenvalues --   -1.08902  -1.08286  -1.05605  -1.04489  -1.02240
 Alpha  occ. eigenvalues --   -1.01068  -1.00903  -0.99375  -0.98292  -0.97532
 Alpha  occ. eigenvalues --   -0.96524  -0.96170  -0.93282  -0.90752  -0.87592
 Alpha  occ. eigenvalues --   -0.85983  -0.84531  -0.83710  -0.83604  -0.82917
 Alpha  occ. eigenvalues --   -0.81915  -0.78584  -0.76909  -0.74724  -0.74261
 Alpha  occ. eigenvalues --   -0.73480  -0.73340  -0.73098  -0.71622  -0.70275
 Alpha  occ. eigenvalues --   -0.67056  -0.66894  -0.66594  -0.66278  -0.64247
 Alpha  occ. eigenvalues --   -0.64117  -0.63446  -0.63292  -0.62471  -0.61446
 Alpha  occ. eigenvalues --   -0.61389  -0.60856  -0.60428  -0.59429  -0.59238
 Alpha  occ. eigenvalues --   -0.58282  -0.57999  -0.57348  -0.57130  -0.56290
 Alpha  occ. eigenvalues --   -0.55975  -0.55743  -0.55316  -0.54574  -0.54137
 Alpha  occ. eigenvalues --   -0.53990  -0.53355  -0.53261  -0.53019  -0.52574
 Alpha  occ. eigenvalues --   -0.52549  -0.52360  -0.52347  -0.51292  -0.50759
 Alpha  occ. eigenvalues --   -0.49827  -0.49777  -0.49242  -0.49202  -0.48711
 Alpha  occ. eigenvalues --   -0.48445  -0.48373  -0.48034  -0.47507  -0.47157
 Alpha  occ. eigenvalues --   -0.47086  -0.45517  -0.45333  -0.44542  -0.43362
 Alpha  occ. eigenvalues --   -0.41666  -0.40635  -0.39255  -0.37790  -0.37599
 Alpha  occ. eigenvalues --   -0.37442  -0.37115  -0.36981  -0.35909  -0.34514
 Alpha  occ. eigenvalues --   -0.34204  -0.33992  -0.33940  -0.33424  -0.32929
 Alpha  occ. eigenvalues --   -0.32433  -0.32180  -0.31780  -0.31620  -0.31286
 Alpha  occ. eigenvalues --   -0.31032  -0.29494  -0.26204  -0.25026
 Alpha virt. eigenvalues --    0.03322   0.04208   0.07147   0.07315   0.08284
 Alpha virt. eigenvalues --    0.08834   0.10024   0.10645   0.10931   0.11957
 Alpha virt. eigenvalues --    0.13202   0.13716   0.14212   0.14261   0.14805
 Alpha virt. eigenvalues --    0.15285   0.16124   0.17349   0.18086   0.18262
 Alpha virt. eigenvalues --    0.18716   0.19191   0.19402   0.20003   0.20189
 Alpha virt. eigenvalues --    0.20527   0.20947   0.21171   0.21337   0.22112
 Alpha virt. eigenvalues --    0.22667   0.23343   0.23412   0.24036   0.24083
 Alpha virt. eigenvalues --    0.24641   0.25084   0.25319   0.25480   0.25545
 Alpha virt. eigenvalues --    0.25958   0.26796   0.27891   0.28243   0.28539
 Alpha virt. eigenvalues --    0.28952   0.29148   0.29748   0.30304   0.30558
 Alpha virt. eigenvalues --    0.31169   0.31600   0.32698   0.33335   0.33444
 Alpha virt. eigenvalues --    0.33959   0.34282   0.35474   0.36162   0.36557
 Alpha virt. eigenvalues --    0.36721   0.37615   0.38288   0.38862   0.39180
 Alpha virt. eigenvalues --    0.40028   0.40283   0.40718   0.41311   0.41689
 Alpha virt. eigenvalues --    0.42323   0.42648   0.43060   0.43754   0.44193
 Alpha virt. eigenvalues --    0.44725   0.45486   0.45811   0.46504   0.47047
 Alpha virt. eigenvalues --    0.47426   0.48320   0.49034   0.49083   0.49547
 Alpha virt. eigenvalues --    0.49885   0.50465   0.50573   0.51250   0.51633
 Alpha virt. eigenvalues --    0.51953   0.52258   0.52565   0.53424   0.53727
 Alpha virt. eigenvalues --    0.53920   0.54466   0.54765   0.55353   0.55599
 Alpha virt. eigenvalues --    0.55813   0.56032   0.57040   0.57239   0.57472
 Alpha virt. eigenvalues --    0.57749   0.58331   0.59185   0.59333   0.59791
 Alpha virt. eigenvalues --    0.60139   0.60727   0.60900   0.61407   0.62087
 Alpha virt. eigenvalues --    0.62355   0.62522   0.62904   0.63707   0.63987
 Alpha virt. eigenvalues --    0.64418   0.64824   0.65112   0.65280   0.65770
 Alpha virt. eigenvalues --    0.65870   0.66076   0.66948   0.67300   0.67491
 Alpha virt. eigenvalues --    0.68317   0.68602   0.69174   0.69295   0.70136
 Alpha virt. eigenvalues --    0.70504   0.70846   0.71040   0.72156   0.73066
 Alpha virt. eigenvalues --    0.73315   0.73574   0.73707   0.73936   0.74716
 Alpha virt. eigenvalues --    0.74790   0.75042   0.75252   0.75587   0.75814
 Alpha virt. eigenvalues --    0.76111   0.76391   0.76697   0.77051   0.77879
 Alpha virt. eigenvalues --    0.78457   0.78621   0.78809   0.79180   0.79539
 Alpha virt. eigenvalues --    0.79864   0.80453   0.80608   0.81111   0.81284
 Alpha virt. eigenvalues --    0.81854   0.82414   0.82813   0.83161   0.83338
 Alpha virt. eigenvalues --    0.84132   0.84564   0.84815   0.85321   0.85491
 Alpha virt. eigenvalues --    0.85951   0.86258   0.87117   0.87210   0.87787
 Alpha virt. eigenvalues --    0.88010   0.88591   0.89606   0.89981   0.90157
 Alpha virt. eigenvalues --    0.90768   0.91577   0.92103   0.92728   0.93181
 Alpha virt. eigenvalues --    0.93471   0.93662   0.94162   0.94607   0.94866
 Alpha virt. eigenvalues --    0.95332   0.95851   0.96415   0.96906   0.97480
 Alpha virt. eigenvalues --    0.98444   0.98664   0.99103   0.99346   0.99549
 Alpha virt. eigenvalues --    0.99896   1.00594   1.01254   1.01590   1.01737
 Alpha virt. eigenvalues --    1.02125   1.02662   1.03571   1.03658   1.03991
 Alpha virt. eigenvalues --    1.04458   1.05205   1.05723   1.06314   1.06654
 Alpha virt. eigenvalues --    1.06955   1.07288   1.07717   1.08293   1.08468
 Alpha virt. eigenvalues --    1.09016   1.09804   1.10638   1.10842   1.11321
 Alpha virt. eigenvalues --    1.12103   1.12163   1.13060   1.13322   1.14361
 Alpha virt. eigenvalues --    1.14585   1.14812   1.15342   1.15974   1.16253
 Alpha virt. eigenvalues --    1.16969   1.17174   1.17334   1.18111   1.18486
 Alpha virt. eigenvalues --    1.18920   1.19290   1.19766   1.20222   1.20593
 Alpha virt. eigenvalues --    1.20896   1.21297   1.21638   1.21945   1.22435
 Alpha virt. eigenvalues --    1.22692   1.23103   1.23525   1.23905   1.24864
 Alpha virt. eigenvalues --    1.25190   1.25624   1.26257   1.26702   1.26937
 Alpha virt. eigenvalues --    1.27544   1.28123   1.28212   1.28555   1.29025
 Alpha virt. eigenvalues --    1.29923   1.30596   1.31025   1.31866   1.32456
 Alpha virt. eigenvalues --    1.32651   1.33094   1.33785   1.34405   1.34941
 Alpha virt. eigenvalues --    1.35551   1.36080   1.36613   1.37218   1.37704
 Alpha virt. eigenvalues --    1.38439   1.39052   1.40203   1.40766   1.41128
 Alpha virt. eigenvalues --    1.41468   1.42481   1.43606   1.44390   1.45071
 Alpha virt. eigenvalues --    1.46471   1.47445   1.48153   1.48894   1.49283
 Alpha virt. eigenvalues --    1.50550   1.51203   1.51398   1.51980   1.52440
 Alpha virt. eigenvalues --    1.52886   1.53421   1.54021   1.54941   1.55535
 Alpha virt. eigenvalues --    1.55764   1.56690   1.57157   1.58155   1.58314
 Alpha virt. eigenvalues --    1.58605   1.59629   1.60846   1.61669   1.61873
 Alpha virt. eigenvalues --    1.62752   1.63004   1.63425   1.64119   1.64504
 Alpha virt. eigenvalues --    1.65069   1.65592   1.66423   1.66890   1.67222
 Alpha virt. eigenvalues --    1.67613   1.67821   1.68589   1.69446   1.69977
 Alpha virt. eigenvalues --    1.70375   1.70900   1.71205   1.71927   1.72106
 Alpha virt. eigenvalues --    1.72614   1.73213   1.73543   1.73696   1.74119
 Alpha virt. eigenvalues --    1.74447   1.74773   1.75434   1.75797   1.75981
 Alpha virt. eigenvalues --    1.76270   1.76738   1.77031   1.77303   1.77734
 Alpha virt. eigenvalues --    1.78285   1.78898   1.79225   1.79500   1.79882
 Alpha virt. eigenvalues --    1.80178   1.80487   1.80926   1.81043   1.81815
 Alpha virt. eigenvalues --    1.82050   1.82323   1.82802   1.83238   1.83747
 Alpha virt. eigenvalues --    1.83891   1.84410   1.84808   1.85455   1.86001
 Alpha virt. eigenvalues --    1.86390   1.86838   1.87389   1.88023   1.88263
 Alpha virt. eigenvalues --    1.88430   1.89538   1.89766   1.89992   1.90679
 Alpha virt. eigenvalues --    1.91105   1.91516   1.91586   1.92272   1.92657
 Alpha virt. eigenvalues --    1.93139   1.93284   1.93739   1.94376   1.95190
 Alpha virt. eigenvalues --    1.95600   1.97155   1.97329   1.98275   1.99261
 Alpha virt. eigenvalues --    1.99856   2.00354   2.01197   2.01637   2.02047
 Alpha virt. eigenvalues --    2.02710   2.03733   2.04104   2.04462   2.04834
 Alpha virt. eigenvalues --    2.05471   2.06742   2.07397   2.07624   2.08194
 Alpha virt. eigenvalues --    2.08495   2.10211   2.10632   2.11266   2.11338
 Alpha virt. eigenvalues --    2.11671   2.12347   2.12824   2.13991   2.15090
 Alpha virt. eigenvalues --    2.15400   2.15824   2.17701   2.18289   2.18610
 Alpha virt. eigenvalues --    2.19241   2.19859   2.20198   2.20956   2.21436
 Alpha virt. eigenvalues --    2.22505   2.23348   2.23589   2.24690   2.25047
 Alpha virt. eigenvalues --    2.25629   2.26379   2.26718   2.27006   2.27384
 Alpha virt. eigenvalues --    2.28220   2.28490   2.29274   2.29919   2.30112
 Alpha virt. eigenvalues --    2.30682   2.31284   2.31691   2.32636   2.33221
 Alpha virt. eigenvalues --    2.33746   2.34195   2.34597   2.35019   2.35582
 Alpha virt. eigenvalues --    2.35710   2.36121   2.36720   2.37374   2.38489
 Alpha virt. eigenvalues --    2.38862   2.39278   2.39817   2.41258   2.41514
 Alpha virt. eigenvalues --    2.42196   2.42971   2.43383   2.43778   2.44117
 Alpha virt. eigenvalues --    2.45116   2.45431   2.46032   2.46421   2.47217
 Alpha virt. eigenvalues --    2.48808   2.49099   2.49749   2.50861   2.52562
 Alpha virt. eigenvalues --    2.53049   2.54995   2.55780   2.56060   2.56727
 Alpha virt. eigenvalues --    2.57605   2.58482   2.58852   2.60207   2.60931
 Alpha virt. eigenvalues --    2.62691   2.62991   2.63193   2.63558   2.64063
 Alpha virt. eigenvalues --    2.65415   2.65690   2.66132   2.66805   2.67086
 Alpha virt. eigenvalues --    2.67577   2.68343   2.68684   2.69694   2.70895
 Alpha virt. eigenvalues --    2.71249   2.71684   2.72318   2.72425   2.73458
 Alpha virt. eigenvalues --    2.73785   2.74635   2.75810   2.76584   2.77519
 Alpha virt. eigenvalues --    2.77845   2.78802   2.79540   2.79715   2.80416
 Alpha virt. eigenvalues --    2.80666   2.81010   2.81750   2.82025   2.82058
 Alpha virt. eigenvalues --    2.82679   2.83192   2.83489   2.84595   2.85550
 Alpha virt. eigenvalues --    2.86298   2.86417   2.86772   2.87341   2.87628
 Alpha virt. eigenvalues --    2.88630   2.88830   2.90253   2.93966   2.94493
 Alpha virt. eigenvalues --    2.95148   2.97299   2.97893   2.99150   2.99585
 Alpha virt. eigenvalues --    3.01164   3.02634   3.03253   3.05450   3.06146
 Alpha virt. eigenvalues --    3.08327   3.10197   3.10922   3.13575   3.15118
 Alpha virt. eigenvalues --    3.15709   3.16986   3.17173   3.19135   3.22549
 Alpha virt. eigenvalues --    3.22678   3.23283   3.23848   3.24095   3.28623
 Alpha virt. eigenvalues --    3.45223   3.47573   3.48464   3.49555   3.50703
 Alpha virt. eigenvalues --    3.53194   3.54829   3.56512   3.58055   3.60447
 Alpha virt. eigenvalues --    3.63796   3.70882   3.75310
          Condensed to atoms (all electrons):
 Mulliken charges:
               1
     1  N   -0.310169
     2  C    0.177022
     3  C    0.070734
     4  N   -0.255196
     5  C    0.131561
     6  H    0.027812
     7  N   -0.282774
     8  C    0.138793
     9  H    0.013929
    10  N   -0.285730
    11  C    0.224708
    12  C    0.096525
    13  N   -0.047952
    14  H    0.109984
    15  H    0.087847
    16  H    0.028605
    17  H    0.035249
    18  H    0.024432
    19  N   -0.284437
    20  C    0.226720
    21  C    0.183117
    22  N   -0.104702
    23  H    0.113535
    24  H    0.114185
    25  N   -0.296442
    26  C    0.214647
    27  N   -0.143809
    28  H    0.129390
    29  C    0.168775
    30  O   -0.323931
    31  C    0.000125
    32  N   -0.219770
    33  C    0.123303
    34  H    0.016669
    35  H    0.019103
    36  H    0.025985
    37  H    0.019322
    38  H    0.040142
    39  H    0.060692
    40  H    0.072856
    41  H    0.026854
    42  C   -0.111616
    43  O   -0.267957
    44  C    0.170501
    45  H    0.132535
    46  N   -0.122468
    47  O   -0.335961
    48  C    0.335674
    49  H    0.044522
    50  C    0.178348
    51  C    0.046014
    52  N   -0.277765
    53  H    0.036316
    54  H    0.037460
    55  H    0.018508
    56  H    0.124228
    57  H    0.119130
    58  N   -0.058842
    59  C    0.109965
    60  C    0.224898
    61  N   -0.267343
    62  H    0.046327
    63  C    0.141625
    64  N   -0.301335
    65  H    0.039611
    66  C    0.102290
    67  N   -0.246151
    68  C    0.027613
    69  C    0.181567
    70  N   -0.295406
 Sum of Mulliken charges =  -0.00000
 Mulliken charges with hydrogens summed into heavy atoms:
               1
     1  N   -0.310169
     2  C    0.265308
     3  C    0.070734
     4  N   -0.255196
     5  C    0.159373
     7  N   -0.282774
     8  C    0.152722
    10  N   -0.285730
    11  C    0.224708
    12  C    0.096525
    13  N    0.149880
    19  N   -0.284437
    20  C    0.226720
    21  C    0.247526
    22  N    0.123019
    25  N   -0.296442
    26  C    0.214647
    27  N   -0.014419
    29  C    0.168775
    30  O   -0.323931
    31  C    0.000125
    32  N   -0.219770
    33  C    0.139972
    42  C   -0.084763
    43  O   -0.267957
    44  C    0.170501
    46  N    0.010066
    47  O   -0.335961
    48  C    0.335674
    50  C    0.222870
    51  C    0.219705
    52  N   -0.277765
    58  N    0.184517
    59  C    0.109965
    60  C    0.224898
    61  N   -0.267343
    63  C    0.187952
    64  N   -0.301335
    66  C    0.141901
    67  N   -0.246151
    68  C    0.027613
    69  C    0.273851
    70  N   -0.295406
 Electronic spatial extent (au):  <R**2>=          21935.6970
 Charge=             -0.0000 electrons
 Dipole moment (field-independent basis, Debye):
    X=             -5.9929    Y=              6.2123    Z=             -4.0348  Tot=              9.5282
 Quadrupole moment (field-independent basis, Debye-Ang):
   XX=           -145.9149   YY=           -226.4393   ZZ=           -259.3628
   XY=            -11.0130   XZ=              5.6834   YZ=              9.4003
 Traceless Quadrupole moment (field-independent basis, Debye-Ang):
   XX=             64.6574   YY=            -15.8669   ZZ=            -48.7905
   XY=            -11.0130   XZ=              5.6834   YZ=              9.4003
 Octapole moment (field-independent basis, Debye-Ang**2):
  XXX=             72.5152  YYY=             67.4821  ZZZ=            -18.8313  XYY=            -61.0241
  XXY=             64.2977  XXZ=             17.1284  XZZ=            -36.8779  YZZ=             44.1698
  YYZ=            -64.5833  XYZ=             37.0936
 Hexadecapole moment (field-independent basis, Debye-Ang**3):
 XXXX=         -15686.3685 YYYY=          -4182.3339 ZZZZ=          -3493.8415 XXXY=           -599.3170
 XXXZ=            -36.3532 YYYX=              7.5007 YYYZ=             68.2307 ZZZX=             39.2689
 ZZZY=             11.6272 XXYY=          -3856.7141 XXZZ=          -3974.6430 YYZZ=          -1380.6538
 XXYZ=            -79.5643 YYXZ=            171.8554 ZZXY=            -92.9002
 N-N= 5.604792075717D+03 E-N=-1.599025023553D+04  KE= 2.037821067011D+03
 No NMR shielding tensors so no spin-rotation constants.
 Leave Link  601 at Sat Jan 20 09:54:20 2018, MaxMem=  4294967296 cpu:              46.9 elap:               1.7
 (Enter /share/apps/g16/l9999.exe)
 1\1\GINC-COMPUTE-0-3\SP\RwB97XD\CC-pVDZ\C23H27N17O3\SATYA\20-Jan-2018\
 0\\#p wb97xd/cc-pvdz sp scf=(maxcycles=20)\\Base pair stacking\\0,1\N,
 0,2.79542,5.83798,-6.79411\C,0,3.02242,7.29579,-6.75855\C,0,1.8632,3.8
 4822,-6.69845\N,0,3.19616,3.63723,-7.02005\C,0,3.70444,4.84443,-7.0648
 1\H,0,4.74657,5.07031,-7.2926\N,0,-0.41414,3.5019,-6.19176\C,0,-0.5145
 3,4.8311,-6.08812\H,0,-1.50617,5.20426,-5.8358\N,0,0.42171,5.76416,-6.
 24861\C,0,1.60127,5.19975,-6.55603\C,0,0.78601,2.96498,-6.50229\N,0,0.
 88823,1.63836,-6.6062\H,0,1.7571,1.19754,-6.83416\H,0,0.10023,1.04022,
 -6.4598\H,0,3.34365,7.60641,-7.65326\H,0,2.16745,7.76158,-6.5323\H,0,3
 .71081,7.51124,-6.06595\N,0,0.59413,5.36477,-3.20913\C,0,-0.22925,4.26
 916,-3.11048\C,0,0.14908,6.77252,-3.17989\N,0,-3.41009,2.9186,-2.76409
 \H,0,-3.82393,2.01027,-2.7102\H,0,-4.02858,3.70295,-2.70934\N,0,-1.572
 41,4.29437,-2.97138\C,0,-2.08539,3.0787,-2.9035\N,0,-1.34165,1.92529,-
 2.9668\H,0,-1.81876,1.03889,-2.90661\C,0,0.04145,1.87559,-3.10975\O,0,
 0.61678,0.78125,-3.15628\C,0,0.60677,3.17396,-3.18406\N,0,1.92841,3.57
 395,-3.32605\C,0,1.87233,4.87816,-3.33593\H,0,2.73652,5.53614,-3.43355
 \H,0,0.40925,7.22387,-4.03277\H,0,-0.84427,6.80376,-3.07717\H,0,0.5777
 1,7.24342,-2.40961\H,0,-4.84385,-3.03762,-3.1958\H,0,-4.44738,-3.19492
 ,-1.4862\H,0,-4.53121,-1.59664,-2.22771\H,0,-0.44038,-4.95392,-3.48532
 \C,0,-0.9092,-3.98983,-3.28789\O,0,1.07969,-2.74434,-3.63453\C,0,-0.11
 917,-2.79892,-3.36153\H,0,-0.28487,-0.77155,-3.13656\N,0,-0.80951,-1.6
 3392,-3.09424\O,0,-2.66188,-0.43619,-2.55445\C,0,-2.13892,-1.51441,-2.
 77494\H,0,-2.85267,-4.78098,-2.90998\C,0,-2.20842,-3.90546,-2.97883\C,
 0,-4.25755,-2.62917,-2.38618\N,0,-2.83352,-2.70693,-2.72358\H,0,-7.041
 73,-0.68843,-5.09701\H,0,-6.06552,0.29884,-4.24004\H,0,-6.54642,-1.125
 65,-3.60472\H,0,0.04489,-1.92623,-6.91723\H,0,-1.13063,-3.16212,-6.888
 57\N,0,-0.88661,-2.21189,-6.69175\C,0,-1.76513,-1.36416,-6.15256\C,0,-
 3.87888,-0.72679,-5.26513\N,0,-3.52339,0.54358,-5.01172\H,0,-1.8874,1.
 76407,-5.19761\C,0,-2.25837,0.75459,-5.36964\N,0,-1.37686,-0.09317,-5.
 90983\H,0,-5.80576,-3.32009,-5.38403\C,0,-4.97606,-2.61601,-5.45343\N,
 0,-3.79065,-2.90596,-5.93138\C,0,-3.08516,-1.71679,-5.81779\C,0,-6.282
 83,-0.65468,-4.44668\N,0,-5.09963,-1.31453,-5.03202\\Version=EM64L-G16
 RevA.03\State=1-A\HF=-2048.7453812\RMSD=6.960e-09\Dipole=-3.7214978,-0
 .4394324,0.0999936\Quadrupole=3.398551,20.0387337,-23.4372847,34.33104
 39,-18.8554458,-1.1452963\PG=C01 [X(C23H27N17O3)]\\@


 YOU CAN LEAD A BOY TO COLLEGE....
 BUT YOU CANNOT MAKE HIM THINK....
           ELBERT HUBBARD
 Job cpu time:       0 days  6 hours 21 minutes 40.0 seconds.
 Elapsed time:       0 days  0 hours 12 minutes 18.5 seconds.
 File lengths (MBytes):  RWF=    298 Int=      0 D2E=      0 Chk=     33 Scr=      1
 Normal termination of Gaussian 16 at Sat Jan 20 09:54:20 2018.
