 Entering Gaussian System, Link 0=g16
 Input=str25.-5.-1.5.com
 Output=str25.-5.-1.5.log
 Initial command:
 /share/apps/g16/l1.exe "/state/partition1/scr/Gau-20554.inp" -scrdir="/state/partition1/scr/"
 Entering Link 1 = /share/apps/g16/l1.exe PID=     20555.
  
 Copyright (c) 1988,1990,1992,1993,1995,1998,2003,2009,2016,
            Gaussian, Inc.  All Rights Reserved.
  
 This is part of the Gaussian(R) 16 program.  It is based on
 the Gaussian(R) 09 system (copyright 2009, Gaussian, Inc.),
 the Gaussian(R) 03 system (copyright 2003, Gaussian, Inc.),
 the Gaussian(R) 98 system (copyright 1998, Gaussian, Inc.),
 the Gaussian(R) 94 system (copyright 1995, Gaussian, Inc.),
 the Gaussian 92(TM) system (copyright 1992, Gaussian, Inc.),
 the Gaussian 90(TM) system (copyright 1990, Gaussian, Inc.),
 the Gaussian 88(TM) system (copyright 1988, Gaussian, Inc.),
 the Gaussian 86(TM) system (copyright 1986, Carnegie Mellon
 University), and the Gaussian 82(TM) system (copyright 1983,
 Carnegie Mellon University). Gaussian is a federally registered
 trademark of Gaussian, Inc.
  
 This software contains proprietary and confidential information,
 including trade secrets, belonging to Gaussian, Inc.
  
 This software is provided under written license and may be
 used, copied, transmitted, or stored only in accord with that
 written license.
  
 The following legend is applicable only to US Government
 contracts under FAR:
  
                    RESTRICTED RIGHTS LEGEND
  
 Use, reproduction and disclosure by the US Government is
 subject to restrictions as set forth in subparagraphs (a)
 and (c) of the Commercial Computer Software - Restricted
 Rights clause in FAR 52.227-19.
  
 Gaussian, Inc.
 340 Quinnipiac St., Bldg. 40, Wallingford CT 06492
  
  
 ---------------------------------------------------------------
 Warning -- This program may not be used in any manner that
 competes with the business of Gaussian, Inc. or will provide
 assistance to any competitor of Gaussian, Inc.  The licensee
 of this program is prohibited from giving any competitor of
 Gaussian, Inc. access to this program.  By using this program,
 the user acknowledges that Gaussian, Inc. is engaged in the
 business of creating and licensing software in the field of
 computational chemistry and represents and warrants to the
 licensee that it is not a competitor of Gaussian, Inc. and that
 it will not use this program in any manner prohibited above.
 ---------------------------------------------------------------
  

 Cite this work as:
 Gaussian 16, Revision A.03,
 M. J. Frisch, G. W. Trucks, H. B. Schlegel, G. E. Scuseria, 
 M. A. Robb, J. R. Cheeseman, G. Scalmani, V. Barone, 
 G. A. Petersson, H. Nakatsuji, X. Li, M. Caricato, A. V. Marenich, 
 J. Bloino, B. G. Janesko, R. Gomperts, B. Mennucci, H. P. Hratchian, 
 J. V. Ortiz, A. F. Izmaylov, J. L. Sonnenberg, D. Williams-Young, 
 F. Ding, F. Lipparini, F. Egidi, J. Goings, B. Peng, A. Petrone, 
 T. Henderson, D. Ranasinghe, V. G. Zakrzewski, J. Gao, N. Rega, 
 G. Zheng, W. Liang, M. Hada, M. Ehara, K. Toyota, R. Fukuda, 
 J. Hasegawa, M. Ishida, T. Nakajima, Y. Honda, O. Kitao, H. Nakai, 
 T. Vreven, K. Throssell, J. A. Montgomery, Jr., J. E. Peralta, 
 F. Ogliaro, M. J. Bearpark, J. J. Heyd, E. N. Brothers, K. N. Kudin, 
 V. N. Staroverov, T. A. Keith, R. Kobayashi, J. Normand, 
 K. Raghavachari, A. P. Rendell, J. C. Burant, S. S. Iyengar, 
 J. Tomasi, M. Cossi, J. M. Millam, M. Klene, C. Adamo, R. Cammi, 
 J. W. Ochterski, R. L. Martin, K. Morokuma, O. Farkas, 
 J. B. Foresman, and D. J. Fox, Gaussian, Inc., Wallingford CT, 2016.
 
 ******************************************
 Gaussian 16:  EM64L-G16RevA.03 25-Dec-2016
                21-Jan-2018 
 ******************************************
 %nprocshared=32
 Will use up to   32 processors via shared memory.
 %mem=32GB
 %chk=allatoms_t.chk
 ---------------------------------------
 #p wb97xd/cc-pvdz sp scf=(maxcycles=20)
 ---------------------------------------
 1/38=1,172=1/1;
 2/12=2,17=6,18=5,40=1/2;
 3/5=16,11=2,25=1,30=1,74=-58/1,2,3;
 4//1;
 5/5=2,7=20,38=5/2;
 6/7=2,8=2,9=2,10=2,28=1/1;
 99/5=1,9=1/99;
 Leave Link    1 at Sun Jan 21 00:30:40 2018, MaxMem=  4294967296 cpu:               2.7 elap:               0.1
 (Enter /share/apps/g16/l101.exe)
 ------------------
 Base pair stacking
 ------------------
 Symbolic Z-matrix:
 Charge =  0 Multiplicity = 1
 N                     4.17557   7.48547  -6.71709 
 C                     4.39231   8.9449   -6.75043 
 C                     3.24275   5.49593  -6.62295 
 N                     4.6093    5.2794   -6.72487 
 C                     5.11659   6.48669  -6.77751 
 H                     6.1808    6.70891  -6.86138 
 N                     0.91559   5.15787  -6.44125 
 C                     0.79861   6.48973  -6.44762 
 H                    -0.22032   6.86738  -6.37411 
 N                     1.74687   7.42075  -6.53078 
 C                     2.96019   6.85079  -6.61693 
 C                     2.1497    4.61536  -6.52931 
 N                     2.26851   3.28607  -6.52311 
 H                     3.16252   2.84112  -6.5863 
 H                     1.4684    2.68996  -6.45512 
 H                     4.8443    9.19667  -7.60629 
 H                     3.51226   9.41481  -6.68859 
 H                     4.96803   9.21618  -5.9791 
 N                     0.94865   6.3413   -3.24935 
 C                     0.12033   5.2461   -3.1994 
 C                     0.50216   7.74849  -3.28333 
 N                    -3.0778    3.89603  -3.09432 
 H                    -3.49434   2.98804  -3.05831 
 H                    -3.699     4.68006  -3.10581 
 N                    -1.22976   5.27129  -3.17319 
 C                    -1.74615   4.05609  -3.12581 
 N                    -0.99928   2.90314  -3.10558 
 H                    -1.4794    2.01708  -3.06897 
 C                     0.39094   2.85348  -3.13185 
 O                     0.96857   1.75958  -3.11004 
 C                     0.95999   4.15135  -3.1828 
 N                     2.28872   4.5512   -3.22155 
 C                     2.23315   5.8549   -3.26019 
 H                     3.10221   6.51263  -3.29762 
 H                     0.83233   8.18457  -4.11977 
 H                    -0.4963    7.7797   -3.26433 
 H                     0.86493   8.2343   -2.48885 
 H                    -4.4683   -2.06987  -3.53376 
 H                    -4.21562  -2.19493  -1.79446 
 H                    -4.23798  -0.61073  -2.5698 
 H                    -0.05528  -3.9827   -3.41989 
 C                    -0.53929  -3.01605  -3.28007 
 O                     1.47109  -1.77331  -3.48278 
 C                     0.25367  -1.82517  -3.30965 
 H                     0.06901   0.20568  -3.1368 
 N                    -0.457    -0.65678  -3.12239 
 O                    -2.34837   0.54711  -2.76106 
 C                    -1.80843  -0.53398  -2.91724 
 H                    -2.50719  -3.80385  -3.05084 
 C                    -1.85978  -2.9285   -3.08195 
 C                    -3.95166  -1.64547  -2.6858 
 N                    -2.50444  -1.72668  -2.90188 
 H                    -5.79465   0.97312  -6.06324 
 H                    -4.9604    2.02921  -5.14084 
 H                    -5.52935   0.64641  -4.48644 
 H                     1.48738  -0.3015   -6.7059 
 H                     0.32294  -1.54665  -6.76743 
 N                     0.53297  -0.58217  -6.60349 
 C                    -0.41815   0.29013  -6.26345 
 C                    -2.64256   0.96169  -5.75089 
 N                    -2.33136   2.2508   -5.5369 
 H                    -0.68799   3.47529  -5.56013 
 C                    -1.02717   2.45188  -5.71454 
 N                    -0.07293   1.57952  -6.05511 
 H                    -4.52536  -1.65686  -5.9754 
 C                    -3.6958   -0.94925  -5.96864 
 N                    -2.45142  -1.25717  -6.24138 
 C                    -1.77301  -0.05449  -6.10695 
 C                    -5.14256   1.06109  -5.31022 
 N                    -3.88357   0.37671  -5.66318 
 
 ITRead=  0  0  0  0  0  0  0  0  0  0  0  0  0  0  0  0  0  0  0  0
 ITRead=  0  0  0  0  0  0  0  0  0  0  0  0  0  0  0  0  0  0  0  0
 ITRead=  0  0  0  0  0  0  0  0  0  0  0  0  0  0  0  0  0  0  0  0
 ITRead=  0  0  0  0  0  0  0  0  0  0
 MicOpt= -1 -1 -1 -1 -1 -1 -1 -1 -1 -1 -1 -1 -1 -1 -1 -1 -1 -1 -1 -1
 MicOpt= -1 -1 -1 -1 -1 -1 -1 -1 -1 -1 -1 -1 -1 -1 -1 -1 -1 -1 -1 -1
 MicOpt= -1 -1 -1 -1 -1 -1 -1 -1 -1 -1 -1 -1 -1 -1 -1 -1 -1 -1 -1 -1
 MicOpt= -1 -1 -1 -1 -1 -1 -1 -1 -1 -1
 NAtoms=     70 NQM=       70 NQMF=       0 NMMI=      0 NMMIF=      0
                NMic=       0 NMicF=      0.
                    Isotopes and Nuclear Properties:
 (Nuclear quadrupole moments (NQMom) in fm**2, nuclear magnetic moments (NMagM)
  in nuclear magnetons)

  Atom         1           2           3           4           5           6           7           8           9          10
 IAtWgt=          14          12          12          14          12           1          14          12           1          14
 AtmWgt=  14.0030740  12.0000000  12.0000000  14.0030740  12.0000000   1.0078250  14.0030740  12.0000000   1.0078250  14.0030740
 NucSpn=           2           0           0           2           0           1           2           0           1           2
 AtZEff=  -0.0000000  -0.0000000  -0.0000000  -0.0000000  -0.0000000  -0.0000000  -0.0000000  -0.0000000  -0.0000000  -0.0000000
 NQMom=    2.0440000   0.0000000   0.0000000   2.0440000   0.0000000   0.0000000   2.0440000   0.0000000   0.0000000   2.0440000
 NMagM=    0.4037610   0.0000000   0.0000000   0.4037610   0.0000000   2.7928460   0.4037610   0.0000000   2.7928460   0.4037610
 AtZNuc=   7.0000000   6.0000000   6.0000000   7.0000000   6.0000000   1.0000000   7.0000000   6.0000000   1.0000000   7.0000000

  Atom        11          12          13          14          15          16          17          18          19          20
 IAtWgt=          12          12          14           1           1           1           1           1          14          12
 AtmWgt=  12.0000000  12.0000000  14.0030740   1.0078250   1.0078250   1.0078250   1.0078250   1.0078250  14.0030740  12.0000000
 NucSpn=           0           0           2           1           1           1           1           1           2           0
 AtZEff=  -0.0000000  -0.0000000  -0.0000000  -0.0000000  -0.0000000  -0.0000000  -0.0000000  -0.0000000  -0.0000000  -0.0000000
 NQMom=    0.0000000   0.0000000   2.0440000   0.0000000   0.0000000   0.0000000   0.0000000   0.0000000   2.0440000   0.0000000
 NMagM=    0.0000000   0.0000000   0.4037610   2.7928460   2.7928460   2.7928460   2.7928460   2.7928460   0.4037610   0.0000000
 AtZNuc=   6.0000000   6.0000000   7.0000000   1.0000000   1.0000000   1.0000000   1.0000000   1.0000000   7.0000000   6.0000000

  Atom        21          22          23          24          25          26          27          28          29          30
 IAtWgt=          12          14           1           1          14          12          14           1          12          16
 AtmWgt=  12.0000000  14.0030740   1.0078250   1.0078250  14.0030740  12.0000000  14.0030740   1.0078250  12.0000000  15.9949146
 NucSpn=           0           2           1           1           2           0           2           1           0           0
 AtZEff=  -0.0000000  -0.0000000  -0.0000000  -0.0000000  -0.0000000  -0.0000000  -0.0000000  -0.0000000  -0.0000000  -0.0000000
 NQMom=    0.0000000   2.0440000   0.0000000   0.0000000   2.0440000   0.0000000   2.0440000   0.0000000   0.0000000   0.0000000
 NMagM=    0.0000000   0.4037610   2.7928460   2.7928460   0.4037610   0.0000000   0.4037610   2.7928460   0.0000000   0.0000000
 AtZNuc=   6.0000000   7.0000000   1.0000000   1.0000000   7.0000000   6.0000000   7.0000000   1.0000000   6.0000000   8.0000000

  Atom        31          32          33          34          35          36          37          38          39          40
 IAtWgt=          12          14          12           1           1           1           1           1           1           1
 AtmWgt=  12.0000000  14.0030740  12.0000000   1.0078250   1.0078250   1.0078250   1.0078250   1.0078250   1.0078250   1.0078250
 NucSpn=           0           2           0           1           1           1           1           1           1           1
 AtZEff=  -0.0000000  -0.0000000  -0.0000000  -0.0000000  -0.0000000  -0.0000000  -0.0000000  -0.0000000  -0.0000000  -0.0000000
 NQMom=    0.0000000   2.0440000   0.0000000   0.0000000   0.0000000   0.0000000   0.0000000   0.0000000   0.0000000   0.0000000
 NMagM=    0.0000000   0.4037610   0.0000000   2.7928460   2.7928460   2.7928460   2.7928460   2.7928460   2.7928460   2.7928460
 AtZNuc=   6.0000000   7.0000000   6.0000000   1.0000000   1.0000000   1.0000000   1.0000000   1.0000000   1.0000000   1.0000000

  Atom        41          42          43          44          45          46          47          48          49          50
 IAtWgt=           1          12          16          12           1          14          16          12           1          12
 AtmWgt=   1.0078250  12.0000000  15.9949146  12.0000000   1.0078250  14.0030740  15.9949146  12.0000000   1.0078250  12.0000000
 NucSpn=           1           0           0           0           1           2           0           0           1           0
 AtZEff=  -0.0000000  -0.0000000  -0.0000000  -0.0000000  -0.0000000  -0.0000000  -0.0000000  -0.0000000  -0.0000000  -0.0000000
 NQMom=    0.0000000   0.0000000   0.0000000   0.0000000   0.0000000   2.0440000   0.0000000   0.0000000   0.0000000   0.0000000
 NMagM=    2.7928460   0.0000000   0.0000000   0.0000000   2.7928460   0.4037610   0.0000000   0.0000000   2.7928460   0.0000000
 AtZNuc=   1.0000000   6.0000000   8.0000000   6.0000000   1.0000000   7.0000000   8.0000000   6.0000000   1.0000000   6.0000000

  Atom        51          52          53          54          55          56          57          58          59          60
 IAtWgt=          12          14           1           1           1           1           1          14          12          12
 AtmWgt=  12.0000000  14.0030740   1.0078250   1.0078250   1.0078250   1.0078250   1.0078250  14.0030740  12.0000000  12.0000000
 NucSpn=           0           2           1           1           1           1           1           2           0           0
 AtZEff=  -0.0000000  -0.0000000  -0.0000000  -0.0000000  -0.0000000  -0.0000000  -0.0000000  -0.0000000  -0.0000000  -0.0000000
 NQMom=    0.0000000   2.0440000   0.0000000   0.0000000   0.0000000   0.0000000   0.0000000   2.0440000   0.0000000   0.0000000
 NMagM=    0.0000000   0.4037610   2.7928460   2.7928460   2.7928460   2.7928460   2.7928460   0.4037610   0.0000000   0.0000000
 AtZNuc=   6.0000000   7.0000000   1.0000000   1.0000000   1.0000000   1.0000000   1.0000000   7.0000000   6.0000000   6.0000000

  Atom        61          62          63          64          65          66          67          68          69          70
 IAtWgt=          14           1          12          14           1          12          14          12          12          14
 AtmWgt=  14.0030740   1.0078250  12.0000000  14.0030740   1.0078250  12.0000000  14.0030740  12.0000000  12.0000000  14.0030740
 NucSpn=           2           1           0           2           1           0           2           0           0           2
 AtZEff=  -0.0000000  -0.0000000  -0.0000000  -0.0000000  -0.0000000  -0.0000000  -0.0000000  -0.0000000  -0.0000000  -0.0000000
 NQMom=    2.0440000   0.0000000   0.0000000   2.0440000   0.0000000   0.0000000   2.0440000   0.0000000   0.0000000   2.0440000
 NMagM=    0.4037610   2.7928460   0.0000000   0.4037610   2.7928460   0.0000000   0.4037610   0.0000000   0.0000000   0.4037610
 AtZNuc=   7.0000000   1.0000000   6.0000000   7.0000000   1.0000000   6.0000000   7.0000000   6.0000000   6.0000000   7.0000000
 Leave Link  101 at Sun Jan 21 00:30:40 2018, MaxMem=  4294967296 cpu:               7.7 elap:               0.3
 (Enter /share/apps/g16/l202.exe)
 Stoichiometry    C23H27N17O3
 Framework group  C1[X(C23H27N17O3)]
 Deg. of freedom   204
 Full point group                 C1      NOp   1
 Largest Abelian subgroup         C1      NOp   1
 Largest concise Abelian subgroup C1      NOp   1
                         Standard orientation:                         
 ---------------------------------------------------------------------
 Center     Atomic      Atomic             Coordinates (Angstroms)
 Number     Number       Type             X           Y           Z
 ---------------------------------------------------------------------
      1          7           0       -6.618113   -1.124311    0.466305
      2          6           0       -7.938898   -0.467986    0.519117
      3          6           0       -4.461775   -1.533218    0.608735
      4          7           0       -5.046648   -2.696747    0.130346
      5          6           0       -6.322351   -2.403824    0.063689
      6          1           0       -7.099136   -3.089921   -0.275184
      7          7           0       -2.884712    0.050345    1.362507
      8          6           0       -3.914321    0.889236    1.516594
      9          1           0       -3.655963    1.878492    1.891915
     10          7           0       -5.209077    0.690515    1.277791
     11          6           0       -5.417856   -0.555166    0.820505
     12          6           0       -3.127665   -1.195734    0.900597
     13          7           0       -2.101190   -2.034574    0.746117
     14          1           0       -2.234484   -2.966494    0.407022
     15          1           0       -1.164467   -1.760254    0.963932
     16          1           0       -8.541240   -0.977039    1.134121
     17          1           0       -7.833917    0.467345    0.855663
     18          1           0       -8.340274   -0.447862   -0.396573
     19          7           0       -3.315387    1.891741   -1.468324
     20          6           0       -1.957149    1.896915   -1.260396
     21          6           0       -4.232048    3.004774   -1.149609
     22          7           0        0.911050    3.516767   -0.159812
     23          1           0        1.888944    3.320811   -0.092205
     24          1           0        0.604562    4.412926    0.162195
     25          7           0       -1.237562    2.911506   -0.734218
     26          6           0        0.048667    2.618805   -0.659675
     27          7           0        0.590750    1.424461   -1.068583
     28          1           0        1.585410    1.287813   -0.974049
     29          6           0       -0.130647    0.366526   -1.612851
     30          8           0        0.455505   -0.669570   -1.950017
     31          6           0       -1.513990    0.666149   -1.699267
     32          7           0       -2.572699   -0.096375   -2.173186
     33          6           0       -3.618316    0.669415   -2.016773
     34          1           0       -4.637803    0.390897   -2.285751
     35          1           0       -4.915766    2.696905   -0.488884
     36          1           0       -3.710261    3.762109   -0.759172
     37          1           0       -4.689274    3.311477   -1.983689
     38          1           0        6.484475    0.988519    0.353467
     39          1           0        6.753329    1.383040   -1.342624
     40          1           0        5.330828    2.007901   -0.507530
     41          1           0        5.668404   -3.291478   -1.686699
     42          6           0        5.163842   -2.335764   -1.544375
     43          8           0        3.013806   -3.181634   -2.081935
     44          6           0        3.749966   -2.253103   -1.749257
     45          1           0        2.215328   -0.901017   -1.678016
     46          7           0        3.211759   -0.998918   -1.542846
     47          8           0        3.318225    1.206762   -1.012911
     48          6           0        3.883302    0.138981   -1.171704
     49          1           0        6.922277   -1.253088   -1.013785
     50          6           0        5.846205   -1.243190   -1.182059
     51          6           0        6.003113    1.167514   -0.596439
     52          7           0        5.243357   -0.021161   -0.993370
     53          1           0        4.269613    2.741115    3.425934
     54          1           0        3.110156    3.073254    2.327088
     55          1           0        4.668560    2.951191    1.857454
     56          1           0        1.234612   -3.564823    0.958234
     57          1           0        2.879490   -3.439823    1.392809
     58          7           0        2.002742   -2.985498    1.231220
     59          6           0        1.865076   -1.665684    1.373706
     60          6           0        2.616002    0.538975    1.860841
     61          7           0        1.426649    1.121940    1.637162
     62          1           0       -0.477068    0.602137    1.083769
     63          6           0        0.520047    0.212703    1.284655
     64          7           0        0.655969   -1.109632    1.141381
     65          1           0        5.750135    0.351000    2.631570
     66          6           0        4.718989    0.146290    2.342159
     67          7           0        4.245780   -1.043367    2.062026
     68          6           0        2.913309   -0.808601    1.755175
     69          6           0        3.973753    2.594382    2.482041
     70          7           0        3.787291    1.150455    2.240546
 ---------------------------------------------------------------------
 Rotational constants (GHZ):           0.1688755           0.0512832           0.0484736
 Leave Link  202 at Sun Jan 21 00:30:40 2018, MaxMem=  4294967296 cpu:               0.4 elap:               0.0
 (Enter /share/apps/g16/l301.exe)
 Standard basis: CC-pVDZ (5D, 7F)
 Ernie: Thresh=  0.10000D-02 Tol=  0.10000D-05 Strict=F.
 Ernie:  86 primitive shells out of 1081 were deleted.
 There are   780 symmetry adapted cartesian basis functions of A   symmetry.
 There are   737 symmetry adapted basis functions of A   symmetry.
   737 basis functions,  1608 primitive gaussians,   780 cartesian basis functions
   154 alpha electrons      154 beta electrons
       nuclear repulsion energy      5552.0767249157 Hartrees.
 IExCor= 4639 DFT=T Ex+Corr=wB97XD ExCW=0 ScaHFX=  1.000000
 ScaDFX=  1.000000  1.000000  1.000000  1.000000 ScalE2=  1.000000  1.000000
 IRadAn=      5 IRanWt=     -1 IRanGd=            0 ICorTp=0 IEmpDi=121
 HFx  wShort=  0.000000 wLong=  0.200000 cFull=  0.222036 cShort=  0.000000 cLong=  0.777964
 DFx  wShort=  0.000000 wLong=  0.200000 cFull=  0.000000 cShort=  0.000000 cLong=  1.000000
 NAtoms=   70 NActive=   70 NUniq=   70 SFac= 1.00D+00 NAtFMM=   60 NAOKFM=T Big=T
 Integral buffers will be    131072 words long.
 Raffenetti 2 integral format.
 Two-electron integral symmetry is turned on.
 R6Disp:  Grimme-D2 Dispersion energy=       -0.0758676733 Hartrees.
 Nuclear repulsion after empirical dispersion term =     5552.0008572424 Hartrees.
 Leave Link  301 at Sun Jan 21 00:30:40 2018, MaxMem=  4294967296 cpu:               3.0 elap:               0.1
 (Enter /share/apps/g16/l302.exe)
 NPDir=0 NMtPBC=     1 NCelOv=     1 NCel=       1 NClECP=     1 NCelD=      1
         NCelK=      1 NCelE2=     1 NClLst=     1 CellRange=     0.0.
 One-electron integrals computed using PRISM.
 One-electron integral symmetry used in STVInt
 NBasis=   737 RedAO= T EigKep=  6.98D-04  NBF=   737
 NBsUse=   737 1.00D-06 EigRej= -1.00D+00 NBFU=   737
 Precomputing XC quadrature grid using
 IXCGrd= 4 IRadAn=           5 IRanWt=          -1 IRanGd=           0 AccXCQ= 0.00D+00.
 Generated NRdTot=       0 NPtTot=           0 NUsed=           0 NTot=          32
 NSgBfM=   767   765   767   767   767 MxSgAt=    70 MxSgA2=    70.
 Leave Link  302 at Sun Jan 21 00:30:45 2018, MaxMem=  4294967296 cpu:             138.7 elap:               4.4
 (Enter /share/apps/g16/l303.exe)
 DipDrv:  MaxL=1.
 Leave Link  303 at Sun Jan 21 00:30:45 2018, MaxMem=  4294967296 cpu:              12.5 elap:               0.4
 (Enter /share/apps/g16/l401.exe)
 ExpMin= 1.22D-01 ExpMax= 1.17D+04 ExpMxC= 4.01D+02 IAcc=3 IRadAn=         5 AccDes= 0.00D+00
 Harris functional with IExCor= 4639 and IRadAn=       5 diagonalized for initial guess.
 HarFok:  IExCor= 4639 AccDes= 0.00D+00 IRadAn=         5 IDoV= 1 UseB2=F ITyADJ=14
 ICtDFT=  3500011 ScaDFX=  1.000000  1.000000  1.000000  1.000000
 FoFCou: FMM=F IPFlag=           0 FMFlag=      100000 FMFlg1=        2001
         NFxFlg=           0 DoJE=T BraDBF=F KetDBF=T FulRan=T
         wScrn=  0.000000 ICntrl=       500 IOpCl=  0 I1Cent=   200000004 NGrid=           0
         NMat0=    1 NMatS0=      1 NMatT0=    0 NMatD0=    1 NMtDS0=    0 NMtDT0=    0
 Petite list used in FoFCou.
 Harris En= -1963.88240304745    
 JPrj=0 DoOrth=F DoCkMO=F.
 Leave Link  401 at Sun Jan 21 00:30:58 2018, MaxMem=  4294967296 cpu:             405.6 elap:              12.7
 (Enter /share/apps/g16/l502.exe)
 Integral symmetry usage will be decided dynamically.
 Closed shell SCF:
 Using DIIS extrapolation, IDIIS=  1040.
 NGot=  4294967296 LenX=  4293717438 LenY=  4293108258
 Requested convergence on RMS density matrix=1.00D-08 within  20 cycles.
 Requested convergence on MAX density matrix=1.00D-06.
 Requested convergence on             energy=1.00D-06.
 No special actions if energy rises.
 Fock matrices will be formed incrementally for  20 cycles.
 Integral accuracy reduced to 1.0D-05 until final iterations.

 Cycle   1  Pass 0  IDiag  1:
 FoFJK:  IHMeth= 1 ICntrl=       0 DoSepK=T KAlg= 0 I1Cent=           0 FoldK=F
 IRaf=         1 NMat=       1 IRICut=       1 DoRegI=T DoRafI=F ISym2E= 0 IDoP0=0 IntGTp=1.
 FoFCou: FMM=T IPFlag=           0 FMFlag=      100000 FMFlg1=        2001
         NFxFlg=           0 DoJE=T BraDBF=F KetDBF=F FulRan=T
         wScrn=  0.000000 ICntrl=       500 IOpCl=  0 I1Cent=           0 NGrid=           0
         NMat0=    1 NMatS0=      1 NMatT0=    0 NMatD0=    1 NMtDS0=    0 NMtDT0=    0
 Symmetry not used in FoFCou.
 FMM levels:  10  Number of levels for PrismC:   9
 E= -2048.31512158050    
 DIIS: error= 2.33D-02 at cycle   1 NSaved=   1.
 NSaved= 1 IEnMin= 1 EnMin= -2048.31512158050     IErMin= 1 ErrMin= 2.33D-02
 ErrMax= 2.33D-02  0.00D+00 EMaxC= 1.00D-01 BMatC= 8.32D-01 BMatP= 8.32D-01
 IDIUse=3 WtCom= 7.67D-01 WtEn= 2.33D-01
 Coeff-Com:  0.100D+01
 Coeff-En:   0.100D+01
 Coeff:      0.100D+01
 Gap=     0.252 Goal=   None    Shift=    0.000
 GapD=    0.252 DampG=1.000 DampE=0.500 DampFc=0.5000 IDamp=-1.
 Damping current iteration by 5.00D-01
 RMSDP=1.59D-03 MaxDP=1.29D-01              OVMax= 1.92D-01

 Cycle   2  Pass 0  IDiag  1:
 RMSU=  7.92D-04    CP:  9.97D-01
 E= -2048.51133287077     Delta-E=       -0.196211290268 Rises=F Damp=T
 DIIS: error= 1.32D-02 at cycle   2 NSaved=   2.
 NSaved= 2 IEnMin= 2 EnMin= -2048.51133287077     IErMin= 2 ErrMin= 1.32D-02
 ErrMax= 1.32D-02  0.00D+00 EMaxC= 1.00D-01 BMatC= 1.45D-01 BMatP= 8.32D-01
 IDIUse=3 WtCom= 8.68D-01 WtEn= 1.32D-01
 Coeff-Com: -0.193D+00 0.119D+01
 Coeff-En:   0.000D+00 0.100D+01
 Coeff:     -0.168D+00 0.117D+01
 Gap=     0.360 Goal=   None    Shift=    0.000
 RMSDP=5.95D-04 MaxDP=3.38D-02 DE=-1.96D-01 OVMax= 1.60D-01

 Cycle   3  Pass 0  IDiag  1:
 RMSU=  5.85D-04    CP:  9.94D-01  1.12D+00
 E= -2048.69025608226     Delta-E=       -0.178923211489 Rises=F Damp=F
 DIIS: error= 7.27D-03 at cycle   3 NSaved=   3.
 NSaved= 3 IEnMin= 3 EnMin= -2048.69025608226     IErMin= 3 ErrMin= 7.27D-03
 ErrMax= 7.27D-03  0.00D+00 EMaxC= 1.00D-01 BMatC= 6.42D-02 BMatP= 1.45D-01
 IDIUse=3 WtCom= 9.27D-01 WtEn= 7.27D-02
 Coeff-Com: -0.231D+00 0.550D+00 0.681D+00
 Coeff-En:   0.000D+00 0.000D+00 0.100D+01
 Coeff:     -0.215D+00 0.510D+00 0.704D+00
 Gap=     0.278 Goal=   None    Shift=    0.000
 RMSDP=3.66D-04 MaxDP=3.25D-02 DE=-1.79D-01 OVMax= 6.24D-02

 Cycle   4  Pass 0  IDiag  1:
 RMSU=  2.06D-04    CP:  9.94D-01  1.41D+00  6.64D-01
 E= -2048.73913145284     Delta-E=       -0.048875370584 Rises=F Damp=F
 DIIS: error= 2.60D-03 at cycle   4 NSaved=   4.
 NSaved= 4 IEnMin= 4 EnMin= -2048.73913145284     IErMin= 4 ErrMin= 2.60D-03
 ErrMax= 2.60D-03  0.00D+00 EMaxC= 1.00D-01 BMatC= 9.25D-03 BMatP= 6.42D-02
 IDIUse=3 WtCom= 9.74D-01 WtEn= 2.60D-02
 Coeff-Com: -0.957D-01 0.185D+00 0.377D+00 0.533D+00
 Coeff-En:   0.000D+00 0.000D+00 0.672D-01 0.933D+00
 Coeff:     -0.932D-01 0.180D+00 0.369D+00 0.544D+00
 Gap=     0.283 Goal=   None    Shift=    0.000
 RMSDP=1.29D-04 MaxDP=1.17D-02 DE=-4.89D-02 OVMax= 1.43D-02

 Cycle   5  Pass 0  IDiag  1:
 RMSU=  6.13D-05    CP:  9.94D-01  1.38D+00  7.99D-01  6.19D-01
 E= -2048.74688048894     Delta-E=       -0.007749036093 Rises=F Damp=F
 DIIS: error= 5.65D-04 at cycle   5 NSaved=   5.
 NSaved= 5 IEnMin= 5 EnMin= -2048.74688048894     IErMin= 5 ErrMin= 5.65D-04
 ErrMax= 5.65D-04  0.00D+00 EMaxC= 1.00D-01 BMatC= 2.80D-04 BMatP= 9.25D-03
 IDIUse=3 WtCom= 9.94D-01 WtEn= 5.65D-03
 Coeff-Com: -0.241D-01 0.412D-01 0.119D+00 0.235D+00 0.629D+00
 Coeff-En:   0.000D+00 0.000D+00 0.000D+00 0.000D+00 0.100D+01
 Coeff:     -0.240D-01 0.410D-01 0.118D+00 0.234D+00 0.631D+00
 Gap=     0.283 Goal=   None    Shift=    0.000
 RMSDP=2.62D-05 MaxDP=1.87D-03 DE=-7.75D-03 OVMax= 3.17D-03

 Failed to achieve initial convergence to 1.0D-08 in  6 cycles.
 Switch to full accuracy anyway.
 Cycle   6  Pass 1  IDiag  1:
 E= -2048.74698847532     Delta-E=       -0.000107986384 Rises=F Damp=F
 DIIS: error= 2.11D-04 at cycle   1 NSaved=   1.
 NSaved= 1 IEnMin= 1 EnMin= -2048.74698847532     IErMin= 1 ErrMin= 2.11D-04
 ErrMax= 2.11D-04  0.00D+00 EMaxC= 1.00D-01 BMatC= 7.64D-05 BMatP= 7.64D-05
 IDIUse=3 WtCom= 9.98D-01 WtEn= 2.11D-03
 Coeff-Com:  0.100D+01
 Coeff-En:   0.100D+01
 Coeff:      0.100D+01
 Gap=     0.283 Goal=   None    Shift=    0.000
 RMSDP=2.62D-05 MaxDP=1.87D-03 DE=-1.08D-04 OVMax= 2.71D-03

 Cycle   7  Pass 1  IDiag  1:
 RMSU=  1.12D-04    CP:  1.00D+00
 E= -2048.74704465086     Delta-E=       -0.000056175544 Rises=F Damp=F
 DIIS: error= 2.51D-04 at cycle   2 NSaved=   2.
 NSaved= 2 IEnMin= 2 EnMin= -2048.74704465086     IErMin= 1 ErrMin= 2.11D-04
 ErrMax= 2.51D-04  0.00D+00 EMaxC= 1.00D-01 BMatC= 4.27D-05 BMatP= 7.64D-05
 IDIUse=3 WtCom= 9.97D-01 WtEn= 2.51D-03
 Coeff-Com:  0.402D+00 0.598D+00
 Coeff-En:   0.000D+00 0.100D+01
 Coeff:      0.401D+00 0.599D+00
 Gap=     0.283 Goal=   None    Shift=    0.000
 RMSDP=1.15D-05 MaxDP=1.10D-03 DE=-5.62D-05 OVMax= 1.55D-03

 Cycle   8  Pass 1  IDiag  1:
 RMSU=  1.12D-05    CP:  1.00D+00  1.02D+00
 E= -2048.74707544968     Delta-E=       -0.000030798818 Rises=F Damp=F
 DIIS: error= 1.06D-04 at cycle   3 NSaved=   3.
 NSaved= 3 IEnMin= 3 EnMin= -2048.74707544968     IErMin= 3 ErrMin= 1.06D-04
 ErrMax= 1.06D-04  0.00D+00 EMaxC= 1.00D-01 BMatC= 1.04D-05 BMatP= 4.27D-05
 IDIUse=3 WtCom= 9.99D-01 WtEn= 1.06D-03
 Coeff-Com: -0.196D-01 0.318D+00 0.702D+00
 Coeff-En:   0.000D+00 0.143D+00 0.857D+00
 Coeff:     -0.196D-01 0.318D+00 0.702D+00
 Gap=     0.283 Goal=   None    Shift=    0.000
 RMSDP=5.66D-06 MaxDP=4.68D-04 DE=-3.08D-05 OVMax= 5.52D-04

 Cycle   9  Pass 1  IDiag  1:
 RMSU=  3.84D-06    CP:  1.00D+00  1.05D+00  7.56D-01
 E= -2048.74708522468     Delta-E=       -0.000009774994 Rises=F Damp=F
 DIIS: error= 4.09D-05 at cycle   4 NSaved=   4.
 NSaved= 4 IEnMin= 4 EnMin= -2048.74708522468     IErMin= 4 ErrMin= 4.09D-05
 ErrMax= 4.09D-05  0.00D+00 EMaxC= 1.00D-01 BMatC= 4.91D-07 BMatP= 1.04D-05
 IDIUse=1 WtCom= 1.00D+00 WtEn= 0.00D+00
 Coeff-Com: -0.296D-01 0.871D-01 0.257D+00 0.685D+00
 Coeff:     -0.296D-01 0.871D-01 0.257D+00 0.685D+00
 Gap=     0.283 Goal=   None    Shift=    0.000
 RMSDP=1.43D-06 MaxDP=1.34D-04 DE=-9.77D-06 OVMax= 5.13D-04

 Cycle  10  Pass 1  IDiag  1:
 RMSU=  1.29D-06    CP:  1.00D+00  1.05D+00  7.90D-01  1.10D+00
 E= -2048.74708604712     Delta-E=       -0.000000822445 Rises=F Damp=F
 DIIS: error= 1.45D-05 at cycle   5 NSaved=   5.
 NSaved= 5 IEnMin= 5 EnMin= -2048.74708604712     IErMin= 5 ErrMin= 1.45D-05
 ErrMax= 1.45D-05  0.00D+00 EMaxC= 1.00D-01 BMatC= 1.21D-07 BMatP= 4.91D-07
 IDIUse=1 WtCom= 1.00D+00 WtEn= 0.00D+00
 Coeff-Com: -0.288D-02-0.572D-01-0.120D+00 0.211D+00 0.970D+00
 Coeff:     -0.288D-02-0.572D-01-0.120D+00 0.211D+00 0.970D+00
 Gap=     0.283 Goal=   None    Shift=    0.000
 RMSDP=1.21D-06 MaxDP=7.51D-05 DE=-8.22D-07 OVMax= 2.48D-04

 Cycle  11  Pass 1  IDiag  1:
 RMSU=  4.97D-07    CP:  1.00D+00  1.06D+00  8.00D-01  1.38D+00  1.17D+00
 E= -2048.74708630410     Delta-E=       -0.000000256974 Rises=F Damp=F
 DIIS: error= 8.97D-06 at cycle   6 NSaved=   6.
 NSaved= 6 IEnMin= 6 EnMin= -2048.74708630410     IErMin= 6 ErrMin= 8.97D-06
 ErrMax= 8.97D-06  0.00D+00 EMaxC= 1.00D-01 BMatC= 2.86D-08 BMatP= 1.21D-07
 IDIUse=1 WtCom= 1.00D+00 WtEn= 0.00D+00
 Coeff-Com:  0.457D-02-0.465D-01-0.114D+00 0.589D-03 0.520D+00 0.636D+00
 Coeff:      0.457D-02-0.465D-01-0.114D+00 0.589D-03 0.520D+00 0.636D+00
 Gap=     0.283 Goal=   None    Shift=    0.000
 RMSDP=3.67D-07 MaxDP=3.61D-05 DE=-2.57D-07 OVMax= 1.33D-04

 Cycle  12  Pass 1  IDiag  1:
 RMSU=  1.81D-07    CP:  1.00D+00  1.06D+00  8.01D-01  1.45D+00  1.30D+00
                    CP:  9.32D-01
 E= -2048.74708634542     Delta-E=       -0.000000041321 Rises=F Damp=F
 DIIS: error= 1.25D-06 at cycle   7 NSaved=   7.
 NSaved= 7 IEnMin= 7 EnMin= -2048.74708634542     IErMin= 7 ErrMin= 1.25D-06
 ErrMax= 1.25D-06  0.00D+00 EMaxC= 1.00D-01 BMatC= 7.99D-10 BMatP= 2.86D-08
 IDIUse=1 WtCom= 1.00D+00 WtEn= 0.00D+00
 Coeff-Com:  0.112D-02-0.810D-02-0.212D-01-0.807D-02 0.626D-01 0.144D+00
 Coeff-Com:  0.829D+00
 Coeff:      0.112D-02-0.810D-02-0.212D-01-0.807D-02 0.626D-01 0.144D+00
 Coeff:      0.829D+00
 Gap=     0.283 Goal=   None    Shift=    0.000
 RMSDP=8.44D-08 MaxDP=4.84D-06 DE=-4.13D-08 OVMax= 2.28D-05

 Cycle  13  Pass 1  IDiag  1:
 RMSU=  4.94D-08    CP:  1.00D+00  1.06D+00  8.01D-01  1.46D+00  1.31D+00
                    CP:  1.02D+00  1.14D+00
 E= -2048.74708634729     Delta-E=       -0.000000001871 Rises=F Damp=F
 DIIS: error= 1.05D-06 at cycle   8 NSaved=   8.
 NSaved= 8 IEnMin= 8 EnMin= -2048.74708634729     IErMin= 8 ErrMin= 1.05D-06
 ErrMax= 1.05D-06  0.00D+00 EMaxC= 1.00D-01 BMatC= 3.12D-10 BMatP= 7.99D-10
 IDIUse=1 WtCom= 1.00D+00 WtEn= 0.00D+00
 Coeff-Com: -0.686D-03 0.872D-02 0.205D-01-0.229D-02-0.110D+00-0.964D-01
 Coeff-Com:  0.414D+00 0.766D+00
 Coeff:     -0.686D-03 0.872D-02 0.205D-01-0.229D-02-0.110D+00-0.964D-01
 Coeff:      0.414D+00 0.766D+00
 Gap=     0.283 Goal=   None    Shift=    0.000
 RMSDP=4.52D-08 MaxDP=2.86D-06 DE=-1.87D-09 OVMax= 1.12D-05

 Cycle  14  Pass 1  IDiag  1:
 RMSU=  2.68D-08    CP:  1.00D+00  1.05D+00  8.01D-01  1.46D+00  1.32D+00
                    CP:  1.06D+00  1.29D+00  1.09D+00
 E= -2048.74708634764     Delta-E=       -0.000000000355 Rises=F Damp=F
 DIIS: error= 2.70D-07 at cycle   9 NSaved=   9.
 NSaved= 9 IEnMin= 9 EnMin= -2048.74708634764     IErMin= 9 ErrMin= 2.70D-07
 ErrMax= 2.70D-07  0.00D+00 EMaxC= 1.00D-01 BMatC= 2.91D-11 BMatP= 3.12D-10
 IDIUse=1 WtCom= 1.00D+00 WtEn= 0.00D+00
 Coeff-Com: -0.408D-03 0.453D-02 0.109D-01 0.108D-03-0.519D-01-0.563D-01
 Coeff-Com:  0.764D-01 0.299D+00 0.718D+00
 Coeff:     -0.408D-03 0.453D-02 0.109D-01 0.108D-03-0.519D-01-0.563D-01
 Coeff:      0.764D-01 0.299D+00 0.718D+00
 Gap=     0.283 Goal=   None    Shift=    0.000
 RMSDP=1.34D-08 MaxDP=9.15D-07 DE=-3.55D-10 OVMax= 3.55D-06

 Cycle  15  Pass 1  IDiag  1:
 RMSU=  9.06D-09    CP:  1.00D+00  1.05D+00  8.01D-01  1.46D+00  1.32D+00
                    CP:  1.07D+00  1.31D+00  1.22D+00  1.13D+00
 E= -2048.74708634777     Delta-E=       -0.000000000126 Rises=F Damp=F
 DIIS: error= 1.20D-07 at cycle  10 NSaved=  10.
 NSaved=10 IEnMin=10 EnMin= -2048.74708634777     IErMin=10 ErrMin= 1.20D-07
 ErrMax= 1.20D-07  0.00D+00 EMaxC= 1.00D-01 BMatC= 5.09D-12 BMatP= 2.91D-11
 IDIUse=1 WtCom= 1.00D+00 WtEn= 0.00D+00
 Coeff-Com:  0.299D-05-0.276D-03-0.560D-03 0.209D-03 0.492D-02 0.705D-03
 Coeff-Com: -0.532D-01-0.563D-01 0.272D+00 0.832D+00
 Coeff:      0.299D-05-0.276D-03-0.560D-03 0.209D-03 0.492D-02 0.705D-03
 Coeff:     -0.532D-01-0.563D-01 0.272D+00 0.832D+00
 Gap=     0.283 Goal=   None    Shift=    0.000
 RMSDP=6.52D-09 MaxDP=3.84D-07 DE=-1.26D-10 OVMax= 1.39D-06

 SCF Done:  E(RwB97XD) =  -2048.74708635     A.U. after   15 cycles
            NFock= 15  Conv=0.65D-08     -V/T= 2.0054
 KE= 2.037764057653D+03 PE=-1.588474994056D+04 EE= 6.246237939320D+03
 Leave Link  502 at Sun Jan 21 00:42:53 2018, MaxMem=  4294967296 cpu:           22080.6 elap:             715.0
 (Enter /share/apps/g16/l601.exe)
 Copying SCF densities to generalized density rwf, IOpCl= 0 IROHF=0.

 **********************************************************************

            Population analysis using the SCF density.

 **********************************************************************

 Orbital symmetries:
       Occupied  (A) (A) (A) (A) (A) (A) (A) (A) (A) (A) (A) (A)
                 (A) (A) (A) (A) (A) (A) (A) (A) (A) (A) (A) (A)
                 (A) (A) (A) (A) (A) (A) (A) (A) (A) (A) (A) (A)
                 (A) (A) (A) (A) (A) (A) (A) (A) (A) (A) (A) (A)
                 (A) (A) (A) (A) (A) (A) (A) (A) (A) (A) (A) (A)
                 (A) (A) (A) (A) (A) (A) (A) (A) (A) (A) (A) (A)
                 (A) (A) (A) (A) (A) (A) (A) (A) (A) (A) (A) (A)
                 (A) (A) (A) (A) (A) (A) (A) (A) (A) (A) (A) (A)
                 (A) (A) (A) (A) (A) (A) (A) (A) (A) (A) (A) (A)
                 (A) (A) (A) (A) (A) (A) (A) (A) (A) (A) (A) (A)
                 (A) (A) (A) (A) (A) (A) (A) (A) (A) (A) (A) (A)
                 (A) (A) (A) (A) (A) (A) (A) (A) (A) (A) (A) (A)
                 (A) (A) (A) (A) (A) (A) (A) (A) (A) (A)
       Virtual   (A) (A) (A) (A) (A) (A) (A) (A) (A) (A) (A) (A)
                 (A) (A) (A) (A) (A) (A) (A) (A) (A) (A) (A) (A)
                 (A) (A) (A) (A) (A) (A) (A) (A) (A) (A) (A) (A)
                 (A) (A) (A) (A) (A) (A) (A) (A) (A) (A) (A) (A)
                 (A) (A) (A) (A) (A) (A) (A) (A) (A) (A) (A) (A)
                 (A) (A) (A) (A) (A) (A) (A) (A) (A) (A) (A) (A)
                 (A) (A) (A) (A) (A) (A) (A) (A) (A) (A) (A) (A)
                 (A) (A) (A) (A) (A) (A) (A) (A) (A) (A) (A) (A)
                 (A) (A) (A) (A) (A) (A) (A) (A) (A) (A) (A) (A)
                 (A) (A) (A) (A) (A) (A) (A) (A) (A) (A) (A) (A)
                 (A) (A) (A) (A) (A) (A) (A) (A) (A) (A) (A) (A)
                 (A) (A) (A) (A) (A) (A) (A) (A) (A) (A) (A) (A)
                 (A) (A) (A) (A) (A) (A) (A) (A) (A) (A) (A) (A)
                 (A) (A) (A) (A) (A) (A) (A) (A) (A) (A) (A) (A)
                 (A) (A) (A) (A) (A) (A) (A) (A) (A) (A) (A) (A)
                 (A) (A) (A) (A) (A) (A) (A) (A) (A) (A) (A) (A)
                 (A) (A) (A) (A) (A) (A) (A) (A) (A) (A) (A) (A)
                 (A) (A) (A) (A) (A) (A) (A) (A) (A) (A) (A) (A)
                 (A) (A) (A) (A) (A) (A) (A) (A) (A) (A) (A) (A)
                 (A) (A) (A) (A) (A) (A) (A) (A) (A) (A) (A) (A)
                 (A) (A) (A) (A) (A) (A) (A) (A) (A) (A) (A) (A)
                 (A) (A) (A) (A) (A) (A) (A) (A) (A) (A) (A) (A)
                 (A) (A) (A) (A) (A) (A) (A) (A) (A) (A) (A) (A)
                 (A) (A) (A) (A) (A) (A) (A) (A) (A) (A) (A) (A)
                 (A) (A) (A) (A) (A) (A) (A) (A) (A) (A) (A) (A)
                 (A) (A) (A) (A) (A) (A) (A) (A) (A) (A) (A) (A)
                 (A) (A) (A) (A) (A) (A) (A) (A) (A) (A) (A) (A)
                 (A) (A) (A) (A) (A) (A) (A) (A) (A) (A) (A) (A)
                 (A) (A) (A) (A) (A) (A) (A) (A) (A) (A) (A) (A)
                 (A) (A) (A) (A) (A) (A) (A) (A) (A) (A) (A) (A)
                 (A) (A) (A) (A) (A) (A) (A) (A) (A) (A) (A) (A)
                 (A) (A) (A) (A) (A) (A) (A) (A) (A) (A) (A) (A)
                 (A) (A) (A) (A) (A) (A) (A) (A) (A) (A) (A) (A)
                 (A) (A) (A) (A) (A) (A) (A) (A) (A) (A) (A) (A)
                 (A) (A) (A) (A) (A) (A) (A) (A) (A) (A) (A) (A)
                 (A) (A) (A) (A) (A) (A) (A) (A) (A) (A) (A) (A)
                 (A) (A) (A) (A) (A) (A) (A) (A) (A) (A) (A) (A)
                 (A) (A) (A) (A) (A) (A) (A) (A) (A) (A) (A) (A)
                 (A) (A) (A) (A) (A) (A) (A) (A) (A) (A) (A) (A)
                 (A) (A) (A) (A) (A) (A) (A) (A) (A) (A) (A) (A)
                 (A) (A) (A) (A) (A) (A) (A) (A) (A) (A) (A) (A)
                 (A) (A) (A) (A) (A) (A) (A) (A) (A) (A) (A) (A)
                 (A) (A) (A) (A) (A) (A) (A) (A) (A) (A) (A) (A)
                 (A) (A) (A) (A) (A) (A) (A) (A) (A) (A) (A) (A)
                 (A) (A) (A) (A) (A) (A) (A) (A) (A) (A) (A) (A)
                 (A) (A) (A) (A) (A) (A) (A) (A) (A) (A) (A) (A)
                 (A) (A) (A) (A) (A) (A) (A) (A) (A) (A) (A) (A)
                 (A) (A) (A) (A) (A) (A) (A) (A) (A) (A) (A) (A)
                 (A) (A) (A) (A) (A) (A) (A)
 The electronic state is 1-A.
 Alpha  occ. eigenvalues --  -19.25945 -19.21948 -19.20535 -14.52468 -14.51722
 Alpha  occ. eigenvalues --  -14.49572 -14.48417 -14.47860 -14.47001 -14.46589
 Alpha  occ. eigenvalues --  -14.46320 -14.44698 -14.43283 -14.43138 -14.42854
 Alpha  occ. eigenvalues --  -14.42163 -14.41882 -14.41862 -14.40898 -14.40620
 Alpha  occ. eigenvalues --  -10.45538 -10.40917 -10.40060 -10.38922 -10.38049
 Alpha  occ. eigenvalues --  -10.37652 -10.37288 -10.36323 -10.36163 -10.35746
 Alpha  occ. eigenvalues --  -10.35001 -10.34811 -10.34171 -10.34109 -10.33888
 Alpha  occ. eigenvalues --  -10.33774 -10.33093 -10.31702 -10.31647 -10.30937
 Alpha  occ. eigenvalues --  -10.30039 -10.29307 -10.27895  -1.19532  -1.14409
 Alpha  occ. eigenvalues --   -1.13076  -1.12981  -1.12146  -1.10355  -1.09342
 Alpha  occ. eigenvalues --   -1.08387  -1.08226  -1.05766  -1.03797  -1.02507
 Alpha  occ. eigenvalues --   -1.01204  -1.00220  -0.99480  -0.98361  -0.97709
 Alpha  occ. eigenvalues --   -0.96253  -0.95842  -0.93419  -0.90973  -0.86916
 Alpha  occ. eigenvalues --   -0.85393  -0.84722  -0.83942  -0.83762  -0.83063
 Alpha  occ. eigenvalues --   -0.81996  -0.78834  -0.76218  -0.74386  -0.73978
 Alpha  occ. eigenvalues --   -0.73635  -0.73471  -0.73330  -0.71846  -0.69606
 Alpha  occ. eigenvalues --   -0.67161  -0.67045  -0.66529  -0.65940  -0.64415
 Alpha  occ. eigenvalues --   -0.63605  -0.63532  -0.63320  -0.62559  -0.61491
 Alpha  occ. eigenvalues --   -0.60911  -0.60681  -0.59807  -0.59471  -0.58867
 Alpha  occ. eigenvalues --   -0.58504  -0.58102  -0.57310  -0.57217  -0.56407
 Alpha  occ. eigenvalues --   -0.56037  -0.55943  -0.54823  -0.54724  -0.54337
 Alpha  occ. eigenvalues --   -0.53859  -0.53405  -0.52902  -0.52748  -0.52606
 Alpha  occ. eigenvalues --   -0.52494  -0.52369  -0.51981  -0.51451  -0.50913
 Alpha  occ. eigenvalues --   -0.49913  -0.49813  -0.49415  -0.48989  -0.48750
 Alpha  occ. eigenvalues --   -0.48584  -0.48154  -0.47918  -0.47690  -0.47486
 Alpha  occ. eigenvalues --   -0.47275  -0.45543  -0.45428  -0.44011  -0.43600
 Alpha  occ. eigenvalues --   -0.41957  -0.40094  -0.39503  -0.38007  -0.37240
 Alpha  occ. eigenvalues --   -0.37106  -0.37042  -0.36583  -0.35612  -0.34391
 Alpha  occ. eigenvalues --   -0.34256  -0.34007  -0.33678  -0.33240  -0.33137
 Alpha  occ. eigenvalues --   -0.32562  -0.32054  -0.31886  -0.31769  -0.31644
 Alpha  occ. eigenvalues --   -0.31157  -0.28759  -0.26578  -0.25163
 Alpha virt. eigenvalues --    0.03151   0.04782   0.07203   0.08013   0.08526
 Alpha virt. eigenvalues --    0.09193   0.09894   0.10111   0.10902   0.11472
 Alpha virt. eigenvalues --    0.13076   0.13418   0.14488   0.14781   0.14882
 Alpha virt. eigenvalues --    0.15407   0.15989   0.17305   0.17812   0.18363
 Alpha virt. eigenvalues --    0.18832   0.19025   0.19530   0.19888   0.20376
 Alpha virt. eigenvalues --    0.20930   0.21031   0.21417   0.21679   0.22180
 Alpha virt. eigenvalues --    0.22808   0.22970   0.23411   0.23746   0.24095
 Alpha virt. eigenvalues --    0.24148   0.24507   0.25069   0.25559   0.25829
 Alpha virt. eigenvalues --    0.25971   0.26692   0.27424   0.27635   0.28064
 Alpha virt. eigenvalues --    0.28480   0.29014   0.29701   0.30429   0.30534
 Alpha virt. eigenvalues --    0.31243   0.32206   0.32679   0.33284   0.33481
 Alpha virt. eigenvalues --    0.33807   0.34634   0.35186   0.35975   0.36855
 Alpha virt. eigenvalues --    0.36951   0.37785   0.37904   0.39038   0.39764
 Alpha virt. eigenvalues --    0.40045   0.40600   0.40977   0.41450   0.41739
 Alpha virt. eigenvalues --    0.41932   0.42571   0.42854   0.43889   0.44599
 Alpha virt. eigenvalues --    0.44938   0.45321   0.45825   0.46215   0.46951
 Alpha virt. eigenvalues --    0.47751   0.48220   0.48962   0.49225   0.49589
 Alpha virt. eigenvalues --    0.49739   0.50375   0.50602   0.50830   0.51271
 Alpha virt. eigenvalues --    0.51579   0.51908   0.52505   0.53423   0.53725
 Alpha virt. eigenvalues --    0.54174   0.54450   0.54674   0.54810   0.55821
 Alpha virt. eigenvalues --    0.56087   0.56510   0.56787   0.57139   0.57209
 Alpha virt. eigenvalues --    0.57698   0.58202   0.58931   0.59471   0.59782
 Alpha virt. eigenvalues --    0.60198   0.60673   0.60881   0.61217   0.61597
 Alpha virt. eigenvalues --    0.61984   0.62324   0.63062   0.63455   0.63778
 Alpha virt. eigenvalues --    0.64090   0.64599   0.65007   0.65267   0.65576
 Alpha virt. eigenvalues --    0.65851   0.66116   0.66556   0.66733   0.67725
 Alpha virt. eigenvalues --    0.68292   0.68658   0.69154   0.69291   0.69860
 Alpha virt. eigenvalues --    0.70135   0.71214   0.71757   0.71967   0.72670
 Alpha virt. eigenvalues --    0.72771   0.73021   0.73284   0.73793   0.74047
 Alpha virt. eigenvalues --    0.74223   0.74811   0.74951   0.75104   0.75689
 Alpha virt. eigenvalues --    0.75909   0.76399   0.76579   0.77233   0.77451
 Alpha virt. eigenvalues --    0.77616   0.78780   0.78852   0.79099   0.79323
 Alpha virt. eigenvalues --    0.79652   0.79891   0.80165   0.80430   0.81222
 Alpha virt. eigenvalues --    0.81509   0.82118   0.82431   0.82916   0.83597
 Alpha virt. eigenvalues --    0.83824   0.84033   0.84613   0.84997   0.85568
 Alpha virt. eigenvalues --    0.85592   0.86774   0.86869   0.87407   0.87584
 Alpha virt. eigenvalues --    0.88075   0.88792   0.89109   0.89440   0.89922
 Alpha virt. eigenvalues --    0.90545   0.90885   0.91218   0.91805   0.92373
 Alpha virt. eigenvalues --    0.93009   0.93410   0.93904   0.94198   0.94618
 Alpha virt. eigenvalues --    0.95131   0.95480   0.96154   0.96529   0.96704
 Alpha virt. eigenvalues --    0.97369   0.97861   0.98324   0.98918   0.99309
 Alpha virt. eigenvalues --    0.99680   1.00197   1.00906   1.01150   1.01585
 Alpha virt. eigenvalues --    1.02352   1.02584   1.03280   1.03469   1.04293
 Alpha virt. eigenvalues --    1.04671   1.04901   1.05018   1.05671   1.06102
 Alpha virt. eigenvalues --    1.06731   1.07300   1.08125   1.08454   1.08621
 Alpha virt. eigenvalues --    1.09152   1.09549   1.10361   1.10875   1.11691
 Alpha virt. eigenvalues --    1.12173   1.12434   1.13187   1.13443   1.14132
 Alpha virt. eigenvalues --    1.14325   1.14562   1.14734   1.15358   1.15706
 Alpha virt. eigenvalues --    1.16277   1.17100   1.17618   1.17971   1.18550
 Alpha virt. eigenvalues --    1.18800   1.19503   1.19739   1.20104   1.20383
 Alpha virt. eigenvalues --    1.20922   1.21200   1.21217   1.21517   1.22331
 Alpha virt. eigenvalues --    1.22498   1.22942   1.23190   1.23508   1.23802
 Alpha virt. eigenvalues --    1.24322   1.24486   1.24871   1.25073   1.25918
 Alpha virt. eigenvalues --    1.26830   1.27053   1.27629   1.28162   1.28678
 Alpha virt. eigenvalues --    1.29116   1.29939   1.30252   1.30814   1.31787
 Alpha virt. eigenvalues --    1.32490   1.33084   1.33240   1.33952   1.34445
 Alpha virt. eigenvalues --    1.34920   1.35993   1.37238   1.37654   1.37982
 Alpha virt. eigenvalues --    1.38911   1.39071   1.39706   1.39886   1.41285
 Alpha virt. eigenvalues --    1.41466   1.42313   1.43713   1.44319   1.44798
 Alpha virt. eigenvalues --    1.45590   1.45706   1.47570   1.48120   1.48564
 Alpha virt. eigenvalues --    1.49105   1.49608   1.50109   1.50786   1.51556
 Alpha virt. eigenvalues --    1.52305   1.53071   1.53495   1.54133   1.55333
 Alpha virt. eigenvalues --    1.55573   1.56024   1.56635   1.57452   1.58035
 Alpha virt. eigenvalues --    1.58748   1.59141   1.60298   1.60841   1.61594
 Alpha virt. eigenvalues --    1.62945   1.63005   1.63604   1.64234   1.64747
 Alpha virt. eigenvalues --    1.65253   1.65817   1.66451   1.67056   1.67464
 Alpha virt. eigenvalues --    1.67943   1.68387   1.68755   1.68937   1.69479
 Alpha virt. eigenvalues --    1.70251   1.70436   1.70817   1.71388   1.72082
 Alpha virt. eigenvalues --    1.72426   1.72774   1.73264   1.73611   1.73694
 Alpha virt. eigenvalues --    1.74714   1.75090   1.75225   1.75487   1.75631
 Alpha virt. eigenvalues --    1.76010   1.76426   1.76550   1.77340   1.77747
 Alpha virt. eigenvalues --    1.78113   1.78395   1.78872   1.79216   1.79316
 Alpha virt. eigenvalues --    1.79497   1.80061   1.80157   1.80631   1.80969
 Alpha virt. eigenvalues --    1.81211   1.81572   1.82182   1.82883   1.83045
 Alpha virt. eigenvalues --    1.83553   1.84336   1.84478   1.84919   1.85204
 Alpha virt. eigenvalues --    1.85543   1.86168   1.87070   1.87114   1.87729
 Alpha virt. eigenvalues --    1.88203   1.88667   1.88784   1.89458   1.90073
 Alpha virt. eigenvalues --    1.90413   1.90961   1.91268   1.91845   1.92157
 Alpha virt. eigenvalues --    1.92749   1.93133   1.93288   1.93694   1.94630
 Alpha virt. eigenvalues --    1.95065   1.95475   1.96401   1.97059   1.97942
 Alpha virt. eigenvalues --    1.99035   1.99738   2.00752   2.01135   2.01674
 Alpha virt. eigenvalues --    2.01968   2.02467   2.03024   2.03695   2.04256
 Alpha virt. eigenvalues --    2.05101   2.05490   2.06446   2.07451   2.08122
 Alpha virt. eigenvalues --    2.08278   2.08758   2.09365   2.09866   2.10374
 Alpha virt. eigenvalues --    2.10920   2.11584   2.12601   2.12785   2.13686
 Alpha virt. eigenvalues --    2.14017   2.14804   2.15538   2.17800   2.18459
 Alpha virt. eigenvalues --    2.18998   2.20014   2.20560   2.20766   2.21487
 Alpha virt. eigenvalues --    2.21968   2.22787   2.22865   2.23658   2.23897
 Alpha virt. eigenvalues --    2.24681   2.25198   2.26444   2.26875   2.27460
 Alpha virt. eigenvalues --    2.27859   2.28688   2.28803   2.29319   2.29596
 Alpha virt. eigenvalues --    2.30498   2.30859   2.31836   2.32343   2.33019
 Alpha virt. eigenvalues --    2.33501   2.33921   2.34334   2.34736   2.35301
 Alpha virt. eigenvalues --    2.35546   2.35911   2.36297   2.37406   2.37714
 Alpha virt. eigenvalues --    2.38448   2.39445   2.39803   2.41009   2.41141
 Alpha virt. eigenvalues --    2.41325   2.42034   2.42998   2.43159   2.43840
 Alpha virt. eigenvalues --    2.45459   2.45723   2.46046   2.46789   2.47022
 Alpha virt. eigenvalues --    2.47678   2.47790   2.49511   2.49872   2.52144
 Alpha virt. eigenvalues --    2.52234   2.54723   2.55285   2.55913   2.56186
 Alpha virt. eigenvalues --    2.56810   2.57713   2.58076   2.59589   2.60526
 Alpha virt. eigenvalues --    2.61185   2.62237   2.62511   2.62768   2.63822
 Alpha virt. eigenvalues --    2.64630   2.65025   2.65916   2.66203   2.66643
 Alpha virt. eigenvalues --    2.67417   2.68134   2.68843   2.69052   2.69562
 Alpha virt. eigenvalues --    2.69966   2.71437   2.71662   2.72217   2.73006
 Alpha virt. eigenvalues --    2.73865   2.74373   2.74929   2.75411   2.76583
 Alpha virt. eigenvalues --    2.78067   2.78359   2.79327   2.79498   2.80119
 Alpha virt. eigenvalues --    2.80346   2.80866   2.81317   2.81381   2.81870
 Alpha virt. eigenvalues --    2.82425   2.82840   2.83292   2.83976   2.84521
 Alpha virt. eigenvalues --    2.84854   2.86010   2.86470   2.87073   2.87238
 Alpha virt. eigenvalues --    2.88663   2.88894   2.89560   2.92727   2.94095
 Alpha virt. eigenvalues --    2.94749   2.95771   2.97462   2.98300   2.98872
 Alpha virt. eigenvalues --    3.00331   3.01734   3.02350   3.05065   3.06435
 Alpha virt. eigenvalues --    3.07231   3.09659   3.10852   3.13599   3.14657
 Alpha virt. eigenvalues --    3.15297   3.16067   3.17005   3.18228   3.20468
 Alpha virt. eigenvalues --    3.22565   3.23319   3.23674   3.24158   3.27189
 Alpha virt. eigenvalues --    3.45521   3.47235   3.48067   3.49610   3.50386
 Alpha virt. eigenvalues --    3.52933   3.54443   3.56551   3.58299   3.60188
 Alpha virt. eigenvalues --    3.63406   3.70811   3.74984
          Condensed to atoms (all electrons):
 Mulliken charges:
               1
     1  N   -0.311327
     2  C    0.179923
     3  C    0.055116
     4  N   -0.255565
     5  C    0.131598
     6  H    0.028717
     7  N   -0.276607
     8  C    0.131556
     9  H    0.017459
    10  N   -0.290973
    11  C    0.228210
    12  C    0.101999
    13  N   -0.045247
    14  H    0.108952
    15  H    0.088997
    16  H    0.028105
    17  H    0.034111
    18  H    0.025641
    19  N   -0.296258
    20  C    0.249493
    21  C    0.178711
    22  N   -0.099865
    23  H    0.110970
    24  H    0.113668
    25  N   -0.298691
    26  C    0.219647
    27  N   -0.129902
    28  H    0.120276
    29  C    0.147849
    30  O   -0.322510
    31  C    0.009166
    32  N   -0.223219
    33  C    0.119101
    34  H    0.023349
    35  H    0.022462
    36  H    0.025385
    37  H    0.020569
    38  H    0.045080
    39  H    0.064742
    40  H    0.075211
    41  H    0.029424
    42  C   -0.104919
    43  O   -0.269858
    44  C    0.174641
    45  H    0.134820
    46  N   -0.129261
    47  O   -0.344534
    48  C    0.346102
    49  H    0.045771
    50  C    0.180287
    51  C    0.036537
    52  N   -0.282157
    53  H    0.034064
    54  H    0.034645
    55  H    0.016446
    56  H    0.122231
    57  H    0.119211
    58  N   -0.057357
    59  C    0.118067
    60  C    0.236345
    61  N   -0.280410
    62  H    0.035595
    63  C    0.171936
    64  N   -0.303470
    65  H    0.034469
    66  C    0.110323
    67  N   -0.248167
    68  C    0.003285
    69  C    0.180321
    70  N   -0.300282
 Sum of Mulliken charges =  -0.00000
 Mulliken charges with hydrogens summed into heavy atoms:
               1
     1  N   -0.311327
     2  C    0.267779
     3  C    0.055116
     4  N   -0.255565
     5  C    0.160315
     7  N   -0.276607
     8  C    0.149015
    10  N   -0.290973
    11  C    0.228210
    12  C    0.101999
    13  N    0.152703
    19  N   -0.296258
    20  C    0.249493
    21  C    0.247126
    22  N    0.124772
    25  N   -0.298691
    26  C    0.219647
    27  N   -0.009626
    29  C    0.147849
    30  O   -0.322510
    31  C    0.009166
    32  N   -0.223219
    33  C    0.142450
    42  C   -0.075495
    43  O   -0.269858
    44  C    0.174641
    46  N    0.005559
    47  O   -0.344534
    48  C    0.346102
    50  C    0.226058
    51  C    0.221570
    52  N   -0.282157
    58  N    0.184085
    59  C    0.118067
    60  C    0.236345
    61  N   -0.280410
    63  C    0.207531
    64  N   -0.303470
    66  C    0.144792
    67  N   -0.248167
    68  C    0.003285
    69  C    0.265476
    70  N   -0.300282
 Electronic spatial extent (au):  <R**2>=          22794.3290
 Charge=             -0.0000 electrons
 Dipole moment (field-independent basis, Debye):
    X=              5.8387    Y=              5.9410    Z=              3.7620  Tot=              9.1400
 Quadrupole moment (field-independent basis, Debye-Ang):
   XX=           -142.4364   YY=           -226.4070   ZZ=           -257.4809
   XY=             13.0195   XZ=             12.4837   YZ=             -7.2887
 Traceless Quadrupole moment (field-independent basis, Debye-Ang):
   XX=             66.3384   YY=            -17.6322   ZZ=            -48.7062
   XY=             13.0195   XZ=             12.4837   YZ=             -7.2887
 Octapole moment (field-independent basis, Debye-Ang**2):
  XXX=            -30.6022  YYY=             61.2557  ZZZ=             21.8271  XYY=             46.5026
  XXY=             49.2818  XXZ=            -39.1835  XZZ=             30.4237  YZZ=             47.6418
  YYZ=             56.1652  XYZ=             36.5859
 Hexadecapole moment (field-independent basis, Debye-Ang**3):
 XXXX=         -15914.4240 YYYY=          -4242.1643 ZZZZ=          -3307.8158 XXXY=            543.3977
 XXXZ=            113.3687 YYYX=             28.5750 YYYZ=            -53.2397 ZZZX=             83.4614
 ZZZY=             17.6132 XXYY=          -4183.6973 XXZZ=          -4164.3719 YYZZ=          -1359.6038
 XXYZ=             74.3334 YYXZ=            170.2469 ZZXY=            107.7767
 N-N= 5.552000857242D+03 E-N=-1.588474993784D+04  KE= 2.037764057653D+03
 No NMR shielding tensors so no spin-rotation constants.
 Leave Link  601 at Sun Jan 21 00:42:55 2018, MaxMem=  4294967296 cpu:              45.8 elap:               1.6
 (Enter /share/apps/g16/l9999.exe)
 1\1\GINC-COMPUTE-0-3\SP\RwB97XD\CC-pVDZ\C23H27N17O3\SATYA\21-Jan-2018\
 0\\#p wb97xd/cc-pvdz sp scf=(maxcycles=20)\\Base pair stacking\\0,1\N,
 0,4.17557,7.48547,-6.71709\C,0,4.39231,8.9449,-6.75043\C,0,3.24275,5.4
 9593,-6.62295\N,0,4.6093,5.2794,-6.72487\C,0,5.11659,6.48669,-6.77751\
 H,0,6.1808,6.70891,-6.86138\N,0,0.91559,5.15787,-6.44125\C,0,0.79861,6
 .48973,-6.44762\H,0,-0.22032,6.86738,-6.37411\N,0,1.74687,7.42075,-6.5
 3078\C,0,2.96019,6.85079,-6.61693\C,0,2.1497,4.61536,-6.52931\N,0,2.26
 851,3.28607,-6.52311\H,0,3.16252,2.84112,-6.5863\H,0,1.4684,2.68996,-6
 .45512\H,0,4.8443,9.19667,-7.60629\H,0,3.51226,9.41481,-6.68859\H,0,4.
 96803,9.21618,-5.9791\N,0,0.94865,6.3413,-3.24935\C,0,0.12033,5.2461,-
 3.1994\C,0,0.50216,7.74849,-3.28333\N,0,-3.0778,3.89603,-3.09432\H,0,-
 3.49434,2.98804,-3.05831\H,0,-3.699,4.68006,-3.10581\N,0,-1.22976,5.27
 129,-3.17319\C,0,-1.74615,4.05609,-3.12581\N,0,-0.99928,2.90314,-3.105
 58\H,0,-1.4794,2.01708,-3.06897\C,0,0.39094,2.85348,-3.13185\O,0,0.968
 57,1.75958,-3.11004\C,0,0.95999,4.15135,-3.1828\N,0,2.28872,4.5512,-3.
 22155\C,0,2.23315,5.8549,-3.26019\H,0,3.10221,6.51263,-3.29762\H,0,0.8
 3233,8.18457,-4.11977\H,0,-0.4963,7.7797,-3.26433\H,0,0.86493,8.2343,-
 2.48885\H,0,-4.4683,-2.06987,-3.53376\H,0,-4.21562,-2.19493,-1.79446\H
 ,0,-4.23798,-0.61073,-2.5698\H,0,-0.05528,-3.9827,-3.41989\C,0,-0.5392
 9,-3.01605,-3.28007\O,0,1.47109,-1.77331,-3.48278\C,0,0.25367,-1.82517
 ,-3.30965\H,0,0.06901,0.20568,-3.1368\N,0,-0.457,-0.65678,-3.12239\O,0
 ,-2.34837,0.54711,-2.76106\C,0,-1.80843,-0.53398,-2.91724\H,0,-2.50719
 ,-3.80385,-3.05084\C,0,-1.85978,-2.9285,-3.08195\C,0,-3.95166,-1.64547
 ,-2.6858\N,0,-2.50444,-1.72668,-2.90188\H,0,-5.79465,0.97312,-6.06324\
 H,0,-4.9604,2.02921,-5.14084\H,0,-5.52935,0.64641,-4.48644\H,0,1.48738
 ,-0.3015,-6.7059\H,0,0.32294,-1.54665,-6.76743\N,0,0.53297,-0.58217,-6
 .60349\C,0,-0.41815,0.29013,-6.26345\C,0,-2.64256,0.96169,-5.75089\N,0
 ,-2.33136,2.2508,-5.5369\H,0,-0.68799,3.47529,-5.56013\C,0,-1.02717,2.
 45188,-5.71454\N,0,-0.07293,1.57952,-6.05511\H,0,-4.52536,-1.65686,-5.
 9754\C,0,-3.6958,-0.94925,-5.96864\N,0,-2.45142,-1.25717,-6.24138\C,0,
 -1.77301,-0.05449,-6.10695\C,0,-5.14256,1.06109,-5.31022\N,0,-3.88357,
 0.37671,-5.66318\\Version=EM64L-G16RevA.03\State=1-A\HF=-2048.7470863\
 RMSD=6.519e-09\Dipole=-3.5674533,-0.4460179,-0.0718629\Quadrupole=10.2
 367291,18.1226899,-28.359419,35.6960481,-16.5528186,0.3341796\PG=C01 [
 X(C23H27N17O3)]\\@


 Once you get people laughing, they're
 listening and you can tell them almost anything.
                                 -- Herb Gardner
 Job cpu time:       0 days  6 hours 18 minutes 19.4 seconds.
 Elapsed time:       0 days  0 hours 12 minutes 14.8 seconds.
 File lengths (MBytes):  RWF=    298 Int=      0 D2E=      0 Chk=     33 Scr=      1
 Normal termination of Gaussian 16 at Sun Jan 21 00:42:55 2018.
