 Entering Gaussian System, Link 0=g16
 Input=str25.10.-1.0.com
 Output=str25.10.-1.0.log
 Initial command:
 /share/apps/g16/l1.exe "/state/partition1/scr/Gau-12091.inp" -scrdir="/state/partition1/scr/"
 Entering Link 1 = /share/apps/g16/l1.exe PID=     12092.
  
 Copyright (c) 1988,1990,1992,1993,1995,1998,2003,2009,2016,
            Gaussian, Inc.  All Rights Reserved.
  
 This is part of the Gaussian(R) 16 program.  It is based on
 the Gaussian(R) 09 system (copyright 2009, Gaussian, Inc.),
 the Gaussian(R) 03 system (copyright 2003, Gaussian, Inc.),
 the Gaussian(R) 98 system (copyright 1998, Gaussian, Inc.),
 the Gaussian(R) 94 system (copyright 1995, Gaussian, Inc.),
 the Gaussian 92(TM) system (copyright 1992, Gaussian, Inc.),
 the Gaussian 90(TM) system (copyright 1990, Gaussian, Inc.),
 the Gaussian 88(TM) system (copyright 1988, Gaussian, Inc.),
 the Gaussian 86(TM) system (copyright 1986, Carnegie Mellon
 University), and the Gaussian 82(TM) system (copyright 1983,
 Carnegie Mellon University). Gaussian is a federally registered
 trademark of Gaussian, Inc.
  
 This software contains proprietary and confidential information,
 including trade secrets, belonging to Gaussian, Inc.
  
 This software is provided under written license and may be
 used, copied, transmitted, or stored only in accord with that
 written license.
  
 The following legend is applicable only to US Government
 contracts under FAR:
  
                    RESTRICTED RIGHTS LEGEND
  
 Use, reproduction and disclosure by the US Government is
 subject to restrictions as set forth in subparagraphs (a)
 and (c) of the Commercial Computer Software - Restricted
 Rights clause in FAR 52.227-19.
  
 Gaussian, Inc.
 340 Quinnipiac St., Bldg. 40, Wallingford CT 06492
  
  
 ---------------------------------------------------------------
 Warning -- This program may not be used in any manner that
 competes with the business of Gaussian, Inc. or will provide
 assistance to any competitor of Gaussian, Inc.  The licensee
 of this program is prohibited from giving any competitor of
 Gaussian, Inc. access to this program.  By using this program,
 the user acknowledges that Gaussian, Inc. is engaged in the
 business of creating and licensing software in the field of
 computational chemistry and represents and warrants to the
 licensee that it is not a competitor of Gaussian, Inc. and that
 it will not use this program in any manner prohibited above.
 ---------------------------------------------------------------
  

 Cite this work as:
 Gaussian 16, Revision A.03,
 M. J. Frisch, G. W. Trucks, H. B. Schlegel, G. E. Scuseria, 
 M. A. Robb, J. R. Cheeseman, G. Scalmani, V. Barone, 
 G. A. Petersson, H. Nakatsuji, X. Li, M. Caricato, A. V. Marenich, 
 J. Bloino, B. G. Janesko, R. Gomperts, B. Mennucci, H. P. Hratchian, 
 J. V. Ortiz, A. F. Izmaylov, J. L. Sonnenberg, D. Williams-Young, 
 F. Ding, F. Lipparini, F. Egidi, J. Goings, B. Peng, A. Petrone, 
 T. Henderson, D. Ranasinghe, V. G. Zakrzewski, J. Gao, N. Rega, 
 G. Zheng, W. Liang, M. Hada, M. Ehara, K. Toyota, R. Fukuda, 
 J. Hasegawa, M. Ishida, T. Nakajima, Y. Honda, O. Kitao, H. Nakai, 
 T. Vreven, K. Throssell, J. A. Montgomery, Jr., J. E. Peralta, 
 F. Ogliaro, M. J. Bearpark, J. J. Heyd, E. N. Brothers, K. N. Kudin, 
 V. N. Staroverov, T. A. Keith, R. Kobayashi, J. Normand, 
 K. Raghavachari, A. P. Rendell, J. C. Burant, S. S. Iyengar, 
 J. Tomasi, M. Cossi, J. M. Millam, M. Klene, C. Adamo, R. Cammi, 
 J. W. Ochterski, R. L. Martin, K. Morokuma, O. Farkas, 
 J. B. Foresman, and D. J. Fox, Gaussian, Inc., Wallingford CT, 2016.
 
 ******************************************
 Gaussian 16:  EM64L-G16RevA.03 25-Dec-2016
                20-Jan-2018 
 ******************************************
 %nprocshared=32
 Will use up to   32 processors via shared memory.
 %mem=32GB
 %chk=allatoms_t.chk
 ---------------------------------------
 #p wb97xd/cc-pvdz sp scf=(maxcycles=20)
 ---------------------------------------
 1/38=1,172=1/1;
 2/12=2,17=6,18=5,40=1/2;
 3/5=16,11=2,25=1,30=1,74=-58/1,2,3;
 4//1;
 5/5=2,7=20,38=5/2;
 6/7=2,8=2,9=2,10=2,28=1/1;
 99/5=1,9=1/99;
 Leave Link    1 at Sat Jan 20 10:55:04 2018, MaxMem=  4294967296 cpu:               2.7 elap:               0.1
 (Enter /share/apps/g16/l101.exe)
 ------------------
 Base pair stacking
 ------------------
 Symbolic Z-matrix:
 Charge =  0 Multiplicity = 1
 N                     5.37556   6.21405  -5.84686 
 C                     5.66314   7.64326  -6.07634 
 C                     4.38869   4.2501   -5.76757 
 N                     5.65137   4.0723   -5.22098 
 C                     6.19538   5.26262  -5.29062 
 H                     7.20154   5.50548  -4.94769 
 N                     2.19711   3.86329  -6.54877 
 C                     2.16579   5.15987  -6.87354 
 H                     1.23695   5.50339  -7.32686 
 N                     3.10518   6.09144  -6.72313 
 C                     4.2042    5.56507  -6.15788 
 C                     3.31713   3.3642   -5.98172 
 N                     3.35031   2.07017  -5.65682 
 H                     4.15863   1.65794  -5.23504 
 H                     2.56875   1.46899  -5.82383 
 H                     6.45332   7.73248  -6.68284 
 H                     4.8693    8.08019  -6.49829 
 H                     5.86265   8.08953  -5.20397 
 N                     1.2871    5.84335  -3.28367 
 C                     0.4633    4.74784  -3.37979 
 C                     0.87408   7.24398  -3.50356 
 N                    -2.67271   3.38731  -3.99312 
 H                    -3.09252   2.4803   -4.0114 
 H                    -3.26559   4.16595  -4.20029 
 N                    -0.85132   4.7667   -3.68878 
 C                    -1.37317   3.553    -3.70391 
 N                    -0.66361   2.4072   -3.43713 
 H                    -1.14502   1.52176  -3.4717 
 C                     0.68972   2.36412  -3.11695 
 O                     1.23535   1.2764   -2.89361 
 C                     1.26414   3.66047  -3.09682 
 N                     2.56456   4.06519  -2.82844 
 C                     2.53068   5.36446  -2.95077 
 H                     3.38738   6.0241   -2.80858 
 H                     1.40378   7.63534  -4.25526 
 H                    -0.09796   7.27048  -3.73314 
 H                     1.03362   7.77477  -2.67192 
 H                    -3.95967  -2.60159  -4.43528 
 H                    -4.14468  -2.62947  -2.68324 
 H                    -3.96247  -1.0904   -3.52551 
 H                     0.27353  -4.48     -3.13216 
 C                    -0.22224  -3.50991  -3.16907 
 O                     1.78594  -2.26871  -2.93727 
 C                     0.56304  -2.31794  -3.06718 
 H                     0.35774  -0.28175  -3.05645 
 N                    -0.16247  -1.14511  -3.12513 
 O                    -2.07483   0.06597  -3.30778 
 C                    -1.52174  -1.01895  -3.26665 
 H                    -2.19216  -4.29517  -3.38958 
 C                    -1.55007  -3.41916  -3.30784 
 C                    -3.66469  -2.1283   -3.51058 
 N                    -2.20957  -2.21298  -3.35828 
 H                    -4.23088  -0.42129  -8.28246 
 H                    -3.82194   0.83382  -7.32351 
 H                    -4.69086  -0.40748  -6.71669 
 H                     2.53419  -1.50726  -5.43288 
 H                     1.44589  -2.78434  -5.74077 
 N                     1.61573  -1.79909  -5.70013 
 C                     0.65922  -0.91453  -5.98966 
 C                    -1.52883  -0.24208  -6.63924 
 N                    -1.27219   1.07495  -6.57621 
 H                     0.28277   2.3337   -6.13096 
 C                    -0.0106    1.28758  -6.20734 
 N                     0.94894   0.40299  -5.91691 
 H                    -3.26685  -2.92454  -7.12489 
 C                    -2.48512  -2.19782  -6.90193 
 N                    -1.26351  -2.50487  -6.53991 
 C                    -0.64654  -1.27391  -6.37014 
 C                    -3.96452  -0.15499  -7.3561 
 N                    -2.71523  -0.84604  -6.98232 
 
 ITRead=  0  0  0  0  0  0  0  0  0  0  0  0  0  0  0  0  0  0  0  0
 ITRead=  0  0  0  0  0  0  0  0  0  0  0  0  0  0  0  0  0  0  0  0
 ITRead=  0  0  0  0  0  0  0  0  0  0  0  0  0  0  0  0  0  0  0  0
 ITRead=  0  0  0  0  0  0  0  0  0  0
 MicOpt= -1 -1 -1 -1 -1 -1 -1 -1 -1 -1 -1 -1 -1 -1 -1 -1 -1 -1 -1 -1
 MicOpt= -1 -1 -1 -1 -1 -1 -1 -1 -1 -1 -1 -1 -1 -1 -1 -1 -1 -1 -1 -1
 MicOpt= -1 -1 -1 -1 -1 -1 -1 -1 -1 -1 -1 -1 -1 -1 -1 -1 -1 -1 -1 -1
 MicOpt= -1 -1 -1 -1 -1 -1 -1 -1 -1 -1
 NAtoms=     70 NQM=       70 NQMF=       0 NMMI=      0 NMMIF=      0
                NMic=       0 NMicF=      0.
                    Isotopes and Nuclear Properties:
 (Nuclear quadrupole moments (NQMom) in fm**2, nuclear magnetic moments (NMagM)
  in nuclear magnetons)

  Atom         1           2           3           4           5           6           7           8           9          10
 IAtWgt=          14          12          12          14          12           1          14          12           1          14
 AtmWgt=  14.0030740  12.0000000  12.0000000  14.0030740  12.0000000   1.0078250  14.0030740  12.0000000   1.0078250  14.0030740
 NucSpn=           2           0           0           2           0           1           2           0           1           2
 AtZEff=  -0.0000000  -0.0000000  -0.0000000  -0.0000000  -0.0000000  -0.0000000  -0.0000000  -0.0000000  -0.0000000  -0.0000000
 NQMom=    2.0440000   0.0000000   0.0000000   2.0440000   0.0000000   0.0000000   2.0440000   0.0000000   0.0000000   2.0440000
 NMagM=    0.4037610   0.0000000   0.0000000   0.4037610   0.0000000   2.7928460   0.4037610   0.0000000   2.7928460   0.4037610
 AtZNuc=   7.0000000   6.0000000   6.0000000   7.0000000   6.0000000   1.0000000   7.0000000   6.0000000   1.0000000   7.0000000

  Atom        11          12          13          14          15          16          17          18          19          20
 IAtWgt=          12          12          14           1           1           1           1           1          14          12
 AtmWgt=  12.0000000  12.0000000  14.0030740   1.0078250   1.0078250   1.0078250   1.0078250   1.0078250  14.0030740  12.0000000
 NucSpn=           0           0           2           1           1           1           1           1           2           0
 AtZEff=  -0.0000000  -0.0000000  -0.0000000  -0.0000000  -0.0000000  -0.0000000  -0.0000000  -0.0000000  -0.0000000  -0.0000000
 NQMom=    0.0000000   0.0000000   2.0440000   0.0000000   0.0000000   0.0000000   0.0000000   0.0000000   2.0440000   0.0000000
 NMagM=    0.0000000   0.0000000   0.4037610   2.7928460   2.7928460   2.7928460   2.7928460   2.7928460   0.4037610   0.0000000
 AtZNuc=   6.0000000   6.0000000   7.0000000   1.0000000   1.0000000   1.0000000   1.0000000   1.0000000   7.0000000   6.0000000

  Atom        21          22          23          24          25          26          27          28          29          30
 IAtWgt=          12          14           1           1          14          12          14           1          12          16
 AtmWgt=  12.0000000  14.0030740   1.0078250   1.0078250  14.0030740  12.0000000  14.0030740   1.0078250  12.0000000  15.9949146
 NucSpn=           0           2           1           1           2           0           2           1           0           0
 AtZEff=  -0.0000000  -0.0000000  -0.0000000  -0.0000000  -0.0000000  -0.0000000  -0.0000000  -0.0000000  -0.0000000  -0.0000000
 NQMom=    0.0000000   2.0440000   0.0000000   0.0000000   2.0440000   0.0000000   2.0440000   0.0000000   0.0000000   0.0000000
 NMagM=    0.0000000   0.4037610   2.7928460   2.7928460   0.4037610   0.0000000   0.4037610   2.7928460   0.0000000   0.0000000
 AtZNuc=   6.0000000   7.0000000   1.0000000   1.0000000   7.0000000   6.0000000   7.0000000   1.0000000   6.0000000   8.0000000

  Atom        31          32          33          34          35          36          37          38          39          40
 IAtWgt=          12          14          12           1           1           1           1           1           1           1
 AtmWgt=  12.0000000  14.0030740  12.0000000   1.0078250   1.0078250   1.0078250   1.0078250   1.0078250   1.0078250   1.0078250
 NucSpn=           0           2           0           1           1           1           1           1           1           1
 AtZEff=  -0.0000000  -0.0000000  -0.0000000  -0.0000000  -0.0000000  -0.0000000  -0.0000000  -0.0000000  -0.0000000  -0.0000000
 NQMom=    0.0000000   2.0440000   0.0000000   0.0000000   0.0000000   0.0000000   0.0000000   0.0000000   0.0000000   0.0000000
 NMagM=    0.0000000   0.4037610   0.0000000   2.7928460   2.7928460   2.7928460   2.7928460   2.7928460   2.7928460   2.7928460
 AtZNuc=   6.0000000   7.0000000   6.0000000   1.0000000   1.0000000   1.0000000   1.0000000   1.0000000   1.0000000   1.0000000

  Atom        41          42          43          44          45          46          47          48          49          50
 IAtWgt=           1          12          16          12           1          14          16          12           1          12
 AtmWgt=   1.0078250  12.0000000  15.9949146  12.0000000   1.0078250  14.0030740  15.9949146  12.0000000   1.0078250  12.0000000
 NucSpn=           1           0           0           0           1           2           0           0           1           0
 AtZEff=  -0.0000000  -0.0000000  -0.0000000  -0.0000000  -0.0000000  -0.0000000  -0.0000000  -0.0000000  -0.0000000  -0.0000000
 NQMom=    0.0000000   0.0000000   0.0000000   0.0000000   0.0000000   2.0440000   0.0000000   0.0000000   0.0000000   0.0000000
 NMagM=    2.7928460   0.0000000   0.0000000   0.0000000   2.7928460   0.4037610   0.0000000   0.0000000   2.7928460   0.0000000
 AtZNuc=   1.0000000   6.0000000   8.0000000   6.0000000   1.0000000   7.0000000   8.0000000   6.0000000   1.0000000   6.0000000

  Atom        51          52          53          54          55          56          57          58          59          60
 IAtWgt=          12          14           1           1           1           1           1          14          12          12
 AtmWgt=  12.0000000  14.0030740   1.0078250   1.0078250   1.0078250   1.0078250   1.0078250  14.0030740  12.0000000  12.0000000
 NucSpn=           0           2           1           1           1           1           1           2           0           0
 AtZEff=  -0.0000000  -0.0000000  -0.0000000  -0.0000000  -0.0000000  -0.0000000  -0.0000000  -0.0000000  -0.0000000  -0.0000000
 NQMom=    0.0000000   2.0440000   0.0000000   0.0000000   0.0000000   0.0000000   0.0000000   2.0440000   0.0000000   0.0000000
 NMagM=    0.0000000   0.4037610   2.7928460   2.7928460   2.7928460   2.7928460   2.7928460   0.4037610   0.0000000   0.0000000
 AtZNuc=   6.0000000   7.0000000   1.0000000   1.0000000   1.0000000   1.0000000   1.0000000   7.0000000   6.0000000   6.0000000

  Atom        61          62          63          64          65          66          67          68          69          70
 IAtWgt=          14           1          12          14           1          12          14          12          12          14
 AtmWgt=  14.0030740   1.0078250  12.0000000  14.0030740   1.0078250  12.0000000  14.0030740  12.0000000  12.0000000  14.0030740
 NucSpn=           2           1           0           2           1           0           2           0           0           2
 AtZEff=  -0.0000000  -0.0000000  -0.0000000  -0.0000000  -0.0000000  -0.0000000  -0.0000000  -0.0000000  -0.0000000  -0.0000000
 NQMom=    2.0440000   0.0000000   0.0000000   2.0440000   0.0000000   0.0000000   2.0440000   0.0000000   0.0000000   2.0440000
 NMagM=    0.4037610   2.7928460   0.0000000   0.4037610   2.7928460   0.0000000   0.4037610   0.0000000   0.0000000   0.4037610
 AtZNuc=   7.0000000   1.0000000   6.0000000   7.0000000   1.0000000   6.0000000   7.0000000   6.0000000   6.0000000   7.0000000
 Leave Link  101 at Sat Jan 20 10:55:04 2018, MaxMem=  4294967296 cpu:               7.6 elap:               0.3
 (Enter /share/apps/g16/l202.exe)
 Stoichiometry    C23H27N17O3
 Framework group  C1[X(C23H27N17O3)]
 Deg. of freedom   204
 Full point group                 C1      NOp   1
 Largest Abelian subgroup         C1      NOp   1
 Largest concise Abelian subgroup C1      NOp   1
                         Standard orientation:                         
 ---------------------------------------------------------------------
 Center     Atomic      Atomic             Coordinates (Angstroms)
 Number     Number       Type             X           Y           Z
 ---------------------------------------------------------------------
      1          7           0       -6.379512   -1.346938    0.497836
      2          6           0       -7.714562   -0.792008    0.793976
      3          6           0       -4.208686   -1.695296    0.439008
      4          7           0       -4.780528   -2.673278   -0.361793
      5          6           0       -6.065476   -2.424259   -0.294306
      6          1           0       -6.836377   -3.000087   -0.807213
      7          7           0       -2.646092   -0.365818    1.602497
      8          6           0       -3.691182    0.342169    2.043084
      9          1           0       -3.444917    1.174142    2.701433
     10          7           0       -4.988717    0.177499    1.793710
     11          6           0       -5.181803   -0.870356    0.975703
     12          6           0       -2.873477   -1.413941    0.781025
     13          7           0       -1.831534   -2.121880    0.340172
     14          1           0       -1.952980   -2.905844   -0.269635
     15          1           0       -0.894538   -1.892873    0.604254
     16          1           0       -8.276781   -1.490713    1.236591
     17          1           0       -7.621593   -0.005110    1.403304
     18          1           0       -8.153771   -0.502764   -0.056567
     19          7           0       -3.569661    2.197927   -1.223077
     20          6           0       -2.204818    2.188231   -1.064536
     21          6           0       -4.470580    3.288600   -0.799429
     22          7           0        0.706512    3.730015    0.034936
     23          1           0        1.685552    3.529136    0.054180
     24          1           0        0.414791    4.603492    0.425633
     25          7           0       -1.463385    3.165589   -0.499641
     26          6           0       -0.176275    2.867436   -0.490940
     27          7           0        0.346770    1.701866   -0.996287
     28          1           0        1.343735    1.558409   -0.946932
     29          6           0       -0.397255    0.682435   -1.582000
     30          8           0        0.172939   -0.329950   -2.007068
     31          6           0       -1.781821    0.988363   -1.598558
     32          7           0       -2.859438    0.259438   -2.082632
     33          6           0       -3.896207    1.014346   -1.838832
     34          1           0       -4.925639    0.754953   -2.088357
     35          1           0       -5.131049    2.938852   -0.135912
     36          1           0       -3.932566    4.018319   -0.379520
     37          1           0       -4.956557    3.649599   -1.594616
     38          1           0        6.286454    1.168401    0.180090
     39          1           0        6.495302    1.672687   -1.495240
     40          1           0        5.105885    2.242961   -0.570218
     41          1           0        5.383278   -2.968334   -2.104255
     42          6           0        4.887319   -2.023499   -1.881684
     43          8           0        2.716535   -2.830420   -2.395175
     44          6           0        3.467264   -1.926298   -2.029450
     45          1           0        1.940656   -0.580324   -1.814617
     46          7           0        2.940979   -0.687788   -1.722255
     47          8           0        3.073751    1.478445   -1.053670
     48          6           0        3.629209    0.422810   -1.302169
     49          1           0        6.667299   -0.979446   -1.345527
     50          6           0        5.585895   -0.957570   -1.473748
     51          6           0        5.771760    1.409554   -0.738073
     52          7           0        4.994277    0.250067   -1.183999
     53          1           0        4.510419    1.823744    4.185621
     54          1           0        3.297922    2.436728    3.282171
     55          1           0        4.838402    2.528330    2.750562
     56          1           0        1.551056   -3.510335   -0.039941
     57          1           0        3.208397   -3.463063    0.361445
     58          7           0        2.313543   -3.015623    0.377226
     59          6           0        2.145570   -1.812661    0.930265
     60          6           0        2.854940    0.157345    2.060564
     61          7           0        1.641783    0.734069    2.067272
     62          1           0       -0.268107    0.339026    1.437301
     63          6           0        0.746800   -0.054387    1.475471
     64          7           0        0.913062   -1.259554    0.920948
     65          1           0        6.022182   -0.139233    2.637436
     66          6           0        4.986003   -0.283492    2.330095
     67          7           0        4.534598   -1.343792    1.705863
     68          6           0        3.184652   -1.077216    1.528895
     69          6           0        4.180039    1.967533    3.252786
     70          7           0        4.023614    0.665019    2.576787
 ---------------------------------------------------------------------
 Rotational constants (GHZ):           0.1571810           0.0519416           0.0494639
 Leave Link  202 at Sat Jan 20 10:55:04 2018, MaxMem=  4294967296 cpu:               0.3 elap:               0.0
 (Enter /share/apps/g16/l301.exe)
 Standard basis: CC-pVDZ (5D, 7F)
 Ernie: Thresh=  0.10000D-02 Tol=  0.10000D-05 Strict=F.
 Ernie:  86 primitive shells out of 1081 were deleted.
 There are   780 symmetry adapted cartesian basis functions of A   symmetry.
 There are   737 symmetry adapted basis functions of A   symmetry.
   737 basis functions,  1608 primitive gaussians,   780 cartesian basis functions
   154 alpha electrons      154 beta electrons
       nuclear repulsion energy      5517.4157765058 Hartrees.
 IExCor= 4639 DFT=T Ex+Corr=wB97XD ExCW=0 ScaHFX=  1.000000
 ScaDFX=  1.000000  1.000000  1.000000  1.000000 ScalE2=  1.000000  1.000000
 IRadAn=      5 IRanWt=     -1 IRanGd=            0 ICorTp=0 IEmpDi=121
 HFx  wShort=  0.000000 wLong=  0.200000 cFull=  0.222036 cShort=  0.000000 cLong=  0.777964
 DFx  wShort=  0.000000 wLong=  0.200000 cFull=  0.000000 cShort=  0.000000 cLong=  1.000000
 NAtoms=   70 NActive=   70 NUniq=   70 SFac= 1.00D+00 NAtFMM=   60 NAOKFM=T Big=T
 Integral buffers will be    131072 words long.
 Raffenetti 2 integral format.
 Two-electron integral symmetry is turned on.
 R6Disp:  Grimme-D2 Dispersion energy=       -0.0721061027 Hartrees.
 Nuclear repulsion after empirical dispersion term =     5517.3436704032 Hartrees.
 Leave Link  301 at Sat Jan 20 10:55:04 2018, MaxMem=  4294967296 cpu:               2.1 elap:               0.1
 (Enter /share/apps/g16/l302.exe)
 NPDir=0 NMtPBC=     1 NCelOv=     1 NCel=       1 NClECP=     1 NCelD=      1
         NCelK=      1 NCelE2=     1 NClLst=     1 CellRange=     0.0.
 One-electron integrals computed using PRISM.
 One-electron integral symmetry used in STVInt
 NBasis=   737 RedAO= T EigKep=  7.10D-04  NBF=   737
 NBsUse=   737 1.00D-06 EigRej= -1.00D+00 NBFU=   737
 Precomputing XC quadrature grid using
 IXCGrd= 4 IRadAn=           5 IRanWt=          -1 IRanGd=           0 AccXCQ= 0.00D+00.
 Generated NRdTot=       0 NPtTot=           0 NUsed=           0 NTot=          32
 NSgBfM=   766   766   766   766   766 MxSgAt=    70 MxSgA2=    70.
 Leave Link  302 at Sat Jan 20 10:55:09 2018, MaxMem=  4294967296 cpu:             134.5 elap:               4.2
 (Enter /share/apps/g16/l303.exe)
 DipDrv:  MaxL=1.
 Leave Link  303 at Sat Jan 20 10:55:09 2018, MaxMem=  4294967296 cpu:              12.5 elap:               0.4
 (Enter /share/apps/g16/l401.exe)
 ExpMin= 1.22D-01 ExpMax= 1.17D+04 ExpMxC= 4.01D+02 IAcc=3 IRadAn=         5 AccDes= 0.00D+00
 Harris functional with IExCor= 4639 and IRadAn=       5 diagonalized for initial guess.
 HarFok:  IExCor= 4639 AccDes= 0.00D+00 IRadAn=         5 IDoV= 1 UseB2=F ITyADJ=14
 ICtDFT=  3500011 ScaDFX=  1.000000  1.000000  1.000000  1.000000
 FoFCou: FMM=F IPFlag=           0 FMFlag=      100000 FMFlg1=        2001
         NFxFlg=           0 DoJE=T BraDBF=F KetDBF=T FulRan=T
         wScrn=  0.000000 ICntrl=       500 IOpCl=  0 I1Cent=   200000004 NGrid=           0
         NMat0=    1 NMatS0=      1 NMatT0=    0 NMatD0=    1 NMtDS0=    0 NMtDT0=    0
 Petite list used in FoFCou.
 Harris En= -1963.88836508433    
 JPrj=0 DoOrth=F DoCkMO=F.
 Leave Link  401 at Sat Jan 20 10:55:22 2018, MaxMem=  4294967296 cpu:             418.0 elap:              13.2
 (Enter /share/apps/g16/l502.exe)
 Integral symmetry usage will be decided dynamically.
 Closed shell SCF:
 Using DIIS extrapolation, IDIIS=  1040.
 NGot=  4294967296 LenX=  4293717438 LenY=  4293108258
 Requested convergence on RMS density matrix=1.00D-08 within  20 cycles.
 Requested convergence on MAX density matrix=1.00D-06.
 Requested convergence on             energy=1.00D-06.
 No special actions if energy rises.
 Fock matrices will be formed incrementally for  20 cycles.
 Integral accuracy reduced to 1.0D-05 until final iterations.

 Cycle   1  Pass 0  IDiag  1:
 FoFJK:  IHMeth= 1 ICntrl=       0 DoSepK=T KAlg= 0 I1Cent=           0 FoldK=F
 IRaf=         1 NMat=       1 IRICut=       1 DoRegI=T DoRafI=F ISym2E= 0 IDoP0=0 IntGTp=1.
 FoFCou: FMM=T IPFlag=           0 FMFlag=      100000 FMFlg1=        2001
         NFxFlg=           0 DoJE=T BraDBF=F KetDBF=F FulRan=T
         wScrn=  0.000000 ICntrl=       500 IOpCl=  0 I1Cent=           0 NGrid=           0
         NMat0=    1 NMatS0=      1 NMatT0=    0 NMatD0=    1 NMtDS0=    0 NMtDT0=    0
 Symmetry not used in FoFCou.
 FMM levels:  10  Number of levels for PrismC:   9
 E= -2048.31746799741    
 DIIS: error= 2.47D-02 at cycle   1 NSaved=   1.
 NSaved= 1 IEnMin= 1 EnMin= -2048.31746799741     IErMin= 1 ErrMin= 2.47D-02
 ErrMax= 2.47D-02  0.00D+00 EMaxC= 1.00D-01 BMatC= 8.35D-01 BMatP= 8.35D-01
 IDIUse=3 WtCom= 7.53D-01 WtEn= 2.47D-01
 Coeff-Com:  0.100D+01
 Coeff-En:   0.100D+01
 Coeff:      0.100D+01
 Gap=     0.254 Goal=   None    Shift=    0.000
 GapD=    0.254 DampG=1.000 DampE=0.500 DampFc=0.5000 IDamp=-1.
 Damping current iteration by 5.00D-01
 RMSDP=1.58D-03 MaxDP=1.28D-01              OVMax= 1.84D-01

 Cycle   2  Pass 0  IDiag  1:
 RMSU=  7.88D-04    CP:  9.98D-01
 E= -2048.51418024344     Delta-E=       -0.196712246036 Rises=F Damp=T
 DIIS: error= 1.32D-02 at cycle   2 NSaved=   2.
 NSaved= 2 IEnMin= 2 EnMin= -2048.51418024344     IErMin= 2 ErrMin= 1.32D-02
 ErrMax= 1.32D-02  0.00D+00 EMaxC= 1.00D-01 BMatC= 1.45D-01 BMatP= 8.35D-01
 IDIUse=3 WtCom= 8.68D-01 WtEn= 1.32D-01
 Coeff-Com: -0.191D+00 0.119D+01
 Coeff-En:   0.000D+00 0.100D+01
 Coeff:     -0.166D+00 0.117D+01
 Gap=     0.360 Goal=   None    Shift=    0.000
 RMSDP=5.89D-04 MaxDP=3.33D-02 DE=-1.97D-01 OVMax= 1.51D-01

 Cycle   3  Pass 0  IDiag  1:
 RMSU=  5.80D-04    CP:  9.94D-01  1.12D+00
 E= -2048.69385867338     Delta-E=       -0.179678429937 Rises=F Damp=F
 DIIS: error= 8.00D-03 at cycle   3 NSaved=   3.
 NSaved= 3 IEnMin= 3 EnMin= -2048.69385867338     IErMin= 3 ErrMin= 8.00D-03
 ErrMax= 8.00D-03  0.00D+00 EMaxC= 1.00D-01 BMatC= 6.45D-02 BMatP= 1.45D-01
 IDIUse=3 WtCom= 9.20D-01 WtEn= 8.00D-02
 Coeff-Com: -0.230D+00 0.549D+00 0.681D+00
 Coeff-En:   0.000D+00 0.000D+00 0.100D+01
 Coeff:     -0.212D+00 0.505D+00 0.707D+00
 Gap=     0.278 Goal=   None    Shift=    0.000
 RMSDP=3.67D-04 MaxDP=3.18D-02 DE=-1.80D-01 OVMax= 7.15D-02

 Cycle   4  Pass 0  IDiag  1:
 RMSU=  2.08D-04    CP:  9.94D-01  1.41D+00  6.61D-01
 E= -2048.74253664421     Delta-E=       -0.048677970831 Rises=F Damp=F
 DIIS: error= 2.79D-03 at cycle   4 NSaved=   4.
 NSaved= 4 IEnMin= 4 EnMin= -2048.74253664421     IErMin= 4 ErrMin= 2.79D-03
 ErrMax= 2.79D-03  0.00D+00 EMaxC= 1.00D-01 BMatC= 9.69D-03 BMatP= 6.45D-02
 IDIUse=3 WtCom= 9.72D-01 WtEn= 2.79D-02
 Coeff-Com: -0.946D-01 0.183D+00 0.380D+00 0.532D+00
 Coeff-En:   0.000D+00 0.000D+00 0.773D-01 0.923D+00
 Coeff:     -0.919D-01 0.178D+00 0.372D+00 0.542D+00
 Gap=     0.283 Goal=   None    Shift=    0.000
 RMSDP=1.31D-04 MaxDP=1.13D-02 DE=-4.87D-02 OVMax= 1.50D-02

 Cycle   5  Pass 0  IDiag  1:
 RMSU=  6.08D-05    CP:  9.94D-01  1.38D+00  8.00D-01  6.18D-01
 E= -2048.75064069721     Delta-E=       -0.008104052999 Rises=F Damp=F
 DIIS: error= 5.05D-04 at cycle   5 NSaved=   5.
 NSaved= 5 IEnMin= 5 EnMin= -2048.75064069721     IErMin= 5 ErrMin= 5.05D-04
 ErrMax= 5.05D-04  0.00D+00 EMaxC= 1.00D-01 BMatC= 2.87D-04 BMatP= 9.69D-03
 IDIUse=3 WtCom= 9.95D-01 WtEn= 5.05D-03
 Coeff-Com: -0.239D-01 0.407D-01 0.121D+00 0.236D+00 0.627D+00
 Coeff-En:   0.000D+00 0.000D+00 0.000D+00 0.000D+00 0.100D+01
 Coeff:     -0.238D-01 0.405D-01 0.120D+00 0.235D+00 0.629D+00
 Gap=     0.283 Goal=   None    Shift=    0.000
 RMSDP=2.65D-05 MaxDP=1.72D-03 DE=-8.10D-03 OVMax= 3.20D-03

 Failed to achieve initial convergence to 1.0D-08 in  6 cycles.
 Switch to full accuracy anyway.
 Cycle   6  Pass 1  IDiag  1:
 E= -2048.75083316537     Delta-E=       -0.000192468156 Rises=F Damp=F
 DIIS: error= 1.95D-04 at cycle   1 NSaved=   1.
 NSaved= 1 IEnMin= 1 EnMin= -2048.75083316537     IErMin= 1 ErrMin= 1.95D-04
 ErrMax= 1.95D-04  0.00D+00 EMaxC= 1.00D-01 BMatC= 7.20D-05 BMatP= 7.20D-05
 IDIUse=3 WtCom= 9.98D-01 WtEn= 1.95D-03
 Coeff-Com:  0.100D+01
 Coeff-En:   0.100D+01
 Coeff:      0.100D+01
 Gap=     0.283 Goal=   None    Shift=    0.000
 RMSDP=2.65D-05 MaxDP=1.72D-03 DE=-1.92D-04 OVMax= 2.77D-03

 Cycle   7  Pass 1  IDiag  1:
 RMSU=  1.05D-04    CP:  1.00D+00
 E= -2048.75088536734     Delta-E=       -0.000052201975 Rises=F Damp=F
 DIIS: error= 1.83D-04 at cycle   2 NSaved=   2.
 NSaved= 2 IEnMin= 2 EnMin= -2048.75088536734     IErMin= 2 ErrMin= 1.83D-04
 ErrMax= 1.83D-04  0.00D+00 EMaxC= 1.00D-01 BMatC= 4.25D-05 BMatP= 7.20D-05
 IDIUse=3 WtCom= 9.98D-01 WtEn= 1.83D-03
 Coeff-Com:  0.412D+00 0.588D+00
 Coeff-En:   0.000D+00 0.100D+01
 Coeff:      0.411D+00 0.589D+00
 Gap=     0.283 Goal=   None    Shift=    0.000
 RMSDP=1.12D-05 MaxDP=9.93D-04 DE=-5.22D-05 OVMax= 1.53D-03

 Cycle   8  Pass 1  IDiag  1:
 RMSU=  1.10D-05    CP:  1.00D+00  1.02D+00
 E= -2048.75091677675     Delta-E=       -0.000031409407 Rises=F Damp=F
 DIIS: error= 9.23D-05 at cycle   3 NSaved=   3.
 NSaved= 3 IEnMin= 3 EnMin= -2048.75091677675     IErMin= 3 ErrMin= 9.23D-05
 ErrMax= 9.23D-05  0.00D+00 EMaxC= 1.00D-01 BMatC= 9.47D-06 BMatP= 4.25D-05
 IDIUse=1 WtCom= 1.00D+00 WtEn= 0.00D+00
 Coeff-Com: -0.196D-01 0.306D+00 0.713D+00
 Coeff:     -0.196D-01 0.306D+00 0.713D+00
 Gap=     0.283 Goal=   None    Shift=    0.000
 RMSDP=5.51D-06 MaxDP=4.36D-04 DE=-3.14D-05 OVMax= 5.77D-04

 Cycle   9  Pass 1  IDiag  1:
 RMSU=  3.80D-06    CP:  1.00D+00  1.05D+00  7.68D-01
 E= -2048.75092585210     Delta-E=       -0.000009075349 Rises=F Damp=F
 DIIS: error= 3.52D-05 at cycle   4 NSaved=   4.
 NSaved= 4 IEnMin= 4 EnMin= -2048.75092585210     IErMin= 4 ErrMin= 3.52D-05
 ErrMax= 3.52D-05  0.00D+00 EMaxC= 1.00D-01 BMatC= 4.92D-07 BMatP= 9.47D-06
 IDIUse=1 WtCom= 1.00D+00 WtEn= 0.00D+00
 Coeff-Com: -0.315D-01 0.820D-01 0.263D+00 0.687D+00
 Coeff:     -0.315D-01 0.820D-01 0.263D+00 0.687D+00
 Gap=     0.283 Goal=   None    Shift=    0.000
 RMSDP=1.45D-06 MaxDP=1.29D-04 DE=-9.08D-06 OVMax= 5.24D-04

 Cycle  10  Pass 1  IDiag  1:
 RMSU=  1.29D-06    CP:  1.00D+00  1.06D+00  8.03D-01  1.11D+00
 E= -2048.75092668806     Delta-E=       -0.000000835959 Rises=F Damp=F
 DIIS: error= 1.43D-05 at cycle   5 NSaved=   5.
 NSaved= 5 IEnMin= 5 EnMin= -2048.75092668806     IErMin= 5 ErrMin= 1.43D-05
 ErrMax= 1.43D-05  0.00D+00 EMaxC= 1.00D-01 BMatC= 1.23D-07 BMatP= 4.92D-07
 IDIUse=1 WtCom= 1.00D+00 WtEn= 0.00D+00
 Coeff-Com: -0.361D-02-0.551D-01-0.120D+00 0.216D+00 0.963D+00
 Coeff:     -0.361D-02-0.551D-01-0.120D+00 0.216D+00 0.963D+00
 Gap=     0.283 Goal=   None    Shift=    0.000
 RMSDP=1.21D-06 MaxDP=7.49D-05 DE=-8.36D-07 OVMax= 2.54D-04

 Cycle  11  Pass 1  IDiag  1:
 RMSU=  4.93D-07    CP:  1.00D+00  1.06D+00  8.14D-01  1.39D+00  1.17D+00
 E= -2048.75092694862     Delta-E=       -0.000000260559 Rises=F Damp=F
 DIIS: error= 9.39D-06 at cycle   6 NSaved=   6.
 NSaved= 6 IEnMin= 6 EnMin= -2048.75092694862     IErMin= 6 ErrMin= 9.39D-06
 ErrMax= 9.39D-06  0.00D+00 EMaxC= 1.00D-01 BMatC= 2.85D-08 BMatP= 1.23D-07
 IDIUse=1 WtCom= 1.00D+00 WtEn= 0.00D+00
 Coeff-Com:  0.468D-02-0.446D-01-0.116D+00 0.118D-02 0.515D+00 0.640D+00
 Coeff:      0.468D-02-0.446D-01-0.116D+00 0.118D-02 0.515D+00 0.640D+00
 Gap=     0.283 Goal=   None    Shift=    0.000
 RMSDP=3.71D-07 MaxDP=3.51D-05 DE=-2.61D-07 OVMax= 1.36D-04

 Cycle  12  Pass 1  IDiag  1:
 RMSU=  1.81D-07    CP:  1.00D+00  1.06D+00  8.15D-01  1.46D+00  1.29D+00
                    CP:  9.30D-01
 E= -2048.75092699010     Delta-E=       -0.000000041480 Rises=F Damp=F
 DIIS: error= 1.52D-06 at cycle   7 NSaved=   7.
 NSaved= 7 IEnMin= 7 EnMin= -2048.75092699010     IErMin= 7 ErrMin= 1.52D-06
 ErrMax= 1.52D-06  0.00D+00 EMaxC= 1.00D-01 BMatC= 8.34D-10 BMatP= 2.85D-08
 IDIUse=1 WtCom= 1.00D+00 WtEn= 0.00D+00
 Coeff-Com:  0.120D-02-0.792D-02-0.222D-01-0.784D-02 0.645D-01 0.147D+00
 Coeff-Com:  0.825D+00
 Coeff:      0.120D-02-0.792D-02-0.222D-01-0.784D-02 0.645D-01 0.147D+00
 Coeff:      0.825D+00
 Gap=     0.283 Goal=   None    Shift=    0.000
 RMSDP=8.54D-08 MaxDP=4.68D-06 DE=-4.15D-08 OVMax= 2.34D-05

 Cycle  13  Pass 1  IDiag  1:
 RMSU=  5.09D-08    CP:  1.00D+00  1.06D+00  8.15D-01  1.47D+00  1.31D+00
                    CP:  1.02D+00  1.14D+00
 E= -2048.75092699192     Delta-E=       -0.000000001826 Rises=F Damp=F
 DIIS: error= 6.36D-07 at cycle   8 NSaved=   8.
 NSaved= 8 IEnMin= 8 EnMin= -2048.75092699192     IErMin= 8 ErrMin= 6.36D-07
 ErrMax= 6.36D-07  0.00D+00 EMaxC= 1.00D-01 BMatC= 3.35D-10 BMatP= 8.34D-10
 IDIUse=1 WtCom= 1.00D+00 WtEn= 0.00D+00
 Coeff-Com: -0.718D-03 0.867D-02 0.215D-01-0.243D-02-0.113D+00-0.102D+00
 Coeff-Com:  0.417D+00 0.770D+00
 Coeff:     -0.718D-03 0.867D-02 0.215D-01-0.243D-02-0.113D+00-0.102D+00
 Coeff:      0.417D+00 0.770D+00
 Gap=     0.283 Goal=   None    Shift=    0.000
 RMSDP=4.75D-08 MaxDP=2.85D-06 DE=-1.83D-09 OVMax= 1.21D-05

 Cycle  14  Pass 1  IDiag  1:
 RMSU=  2.72D-08    CP:  1.00D+00  1.06D+00  8.14D-01  1.47D+00  1.32D+00
                    CP:  1.06D+00  1.30D+00  1.09D+00
 E= -2048.75092699267     Delta-E=       -0.000000000751 Rises=F Damp=F
 DIIS: error= 2.36D-07 at cycle   9 NSaved=   9.
 NSaved= 9 IEnMin= 9 EnMin= -2048.75092699267     IErMin= 9 ErrMin= 2.36D-07
 ErrMax= 2.36D-07  0.00D+00 EMaxC= 1.00D-01 BMatC= 3.20D-11 BMatP= 3.35D-10
 IDIUse=1 WtCom= 1.00D+00 WtEn= 0.00D+00
 Coeff-Com: -0.438D-03 0.460D-02 0.117D-01-0.168D-04-0.548D-01-0.600D-01
 Coeff-Com:  0.855D-01 0.311D+00 0.703D+00
 Coeff:     -0.438D-03 0.460D-02 0.117D-01-0.168D-04-0.548D-01-0.600D-01
 Coeff:      0.855D-01 0.311D+00 0.703D+00
 Gap=     0.283 Goal=   None    Shift=    0.000
 RMSDP=1.38D-08 MaxDP=8.64D-07 DE=-7.51D-10 OVMax= 3.58D-06

 Cycle  15  Pass 1  IDiag  1:
 RMSU=  9.22D-09    CP:  1.00D+00  1.06D+00  8.15D-01  1.47D+00  1.32D+00
                    CP:  1.07D+00  1.33D+00  1.22D+00  1.12D+00
 E= -2048.75092699273     Delta-E=       -0.000000000055 Rises=F Damp=F
 DIIS: error= 6.13D-08 at cycle  10 NSaved=  10.
 NSaved=10 IEnMin=10 EnMin= -2048.75092699273     IErMin=10 ErrMin= 6.13D-08
 ErrMax= 6.13D-08  0.00D+00 EMaxC= 1.00D-01 BMatC= 5.21D-12 BMatP= 3.20D-11
 IDIUse=1 WtCom= 1.00D+00 WtEn= 0.00D+00
 Coeff-Com:  0.912D-06-0.260D-03-0.547D-03 0.187D-03 0.478D-02 0.891D-03
 Coeff-Com: -0.513D-01-0.546D-01 0.262D+00 0.839D+00
 Coeff:      0.912D-06-0.260D-03-0.547D-03 0.187D-03 0.478D-02 0.891D-03
 Coeff:     -0.513D-01-0.546D-01 0.262D+00 0.839D+00
 Gap=     0.283 Goal=   None    Shift=    0.000
 RMSDP=6.67D-09 MaxDP=3.73D-07 DE=-5.46D-11 OVMax= 1.47D-06

 SCF Done:  E(RwB97XD) =  -2048.75092699     A.U. after   15 cycles
            NFock= 15  Conv=0.67D-08     -V/T= 2.0054
 KE= 2.037715071959D+03 PE=-1.581562937632D+04 EE= 6.211819706961D+03
 Leave Link  502 at Sat Jan 20 11:06:46 2018, MaxMem=  4294967296 cpu:           21125.7 elap:             684.2
 (Enter /share/apps/g16/l601.exe)
 Copying SCF densities to generalized density rwf, IOpCl= 0 IROHF=0.

 **********************************************************************

            Population analysis using the SCF density.

 **********************************************************************

 Orbital symmetries:
       Occupied  (A) (A) (A) (A) (A) (A) (A) (A) (A) (A) (A) (A)
                 (A) (A) (A) (A) (A) (A) (A) (A) (A) (A) (A) (A)
                 (A) (A) (A) (A) (A) (A) (A) (A) (A) (A) (A) (A)
                 (A) (A) (A) (A) (A) (A) (A) (A) (A) (A) (A) (A)
                 (A) (A) (A) (A) (A) (A) (A) (A) (A) (A) (A) (A)
                 (A) (A) (A) (A) (A) (A) (A) (A) (A) (A) (A) (A)
                 (A) (A) (A) (A) (A) (A) (A) (A) (A) (A) (A) (A)
                 (A) (A) (A) (A) (A) (A) (A) (A) (A) (A) (A) (A)
                 (A) (A) (A) (A) (A) (A) (A) (A) (A) (A) (A) (A)
                 (A) (A) (A) (A) (A) (A) (A) (A) (A) (A) (A) (A)
                 (A) (A) (A) (A) (A) (A) (A) (A) (A) (A) (A) (A)
                 (A) (A) (A) (A) (A) (A) (A) (A) (A) (A) (A) (A)
                 (A) (A) (A) (A) (A) (A) (A) (A) (A) (A)
       Virtual   (A) (A) (A) (A) (A) (A) (A) (A) (A) (A) (A) (A)
                 (A) (A) (A) (A) (A) (A) (A) (A) (A) (A) (A) (A)
                 (A) (A) (A) (A) (A) (A) (A) (A) (A) (A) (A) (A)
                 (A) (A) (A) (A) (A) (A) (A) (A) (A) (A) (A) (A)
                 (A) (A) (A) (A) (A) (A) (A) (A) (A) (A) (A) (A)
                 (A) (A) (A) (A) (A) (A) (A) (A) (A) (A) (A) (A)
                 (A) (A) (A) (A) (A) (A) (A) (A) (A) (A) (A) (A)
                 (A) (A) (A) (A) (A) (A) (A) (A) (A) (A) (A) (A)
                 (A) (A) (A) (A) (A) (A) (A) (A) (A) (A) (A) (A)
                 (A) (A) (A) (A) (A) (A) (A) (A) (A) (A) (A) (A)
                 (A) (A) (A) (A) (A) (A) (A) (A) (A) (A) (A) (A)
                 (A) (A) (A) (A) (A) (A) (A) (A) (A) (A) (A) (A)
                 (A) (A) (A) (A) (A) (A) (A) (A) (A) (A) (A) (A)
                 (A) (A) (A) (A) (A) (A) (A) (A) (A) (A) (A) (A)
                 (A) (A) (A) (A) (A) (A) (A) (A) (A) (A) (A) (A)
                 (A) (A) (A) (A) (A) (A) (A) (A) (A) (A) (A) (A)
                 (A) (A) (A) (A) (A) (A) (A) (A) (A) (A) (A) (A)
                 (A) (A) (A) (A) (A) (A) (A) (A) (A) (A) (A) (A)
                 (A) (A) (A) (A) (A) (A) (A) (A) (A) (A) (A) (A)
                 (A) (A) (A) (A) (A) (A) (A) (A) (A) (A) (A) (A)
                 (A) (A) (A) (A) (A) (A) (A) (A) (A) (A) (A) (A)
                 (A) (A) (A) (A) (A) (A) (A) (A) (A) (A) (A) (A)
                 (A) (A) (A) (A) (A) (A) (A) (A) (A) (A) (A) (A)
                 (A) (A) (A) (A) (A) (A) (A) (A) (A) (A) (A) (A)
                 (A) (A) (A) (A) (A) (A) (A) (A) (A) (A) (A) (A)
                 (A) (A) (A) (A) (A) (A) (A) (A) (A) (A) (A) (A)
                 (A) (A) (A) (A) (A) (A) (A) (A) (A) (A) (A) (A)
                 (A) (A) (A) (A) (A) (A) (A) (A) (A) (A) (A) (A)
                 (A) (A) (A) (A) (A) (A) (A) (A) (A) (A) (A) (A)
                 (A) (A) (A) (A) (A) (A) (A) (A) (A) (A) (A) (A)
                 (A) (A) (A) (A) (A) (A) (A) (A) (A) (A) (A) (A)
                 (A) (A) (A) (A) (A) (A) (A) (A) (A) (A) (A) (A)
                 (A) (A) (A) (A) (A) (A) (A) (A) (A) (A) (A) (A)
                 (A) (A) (A) (A) (A) (A) (A) (A) (A) (A) (A) (A)
                 (A) (A) (A) (A) (A) (A) (A) (A) (A) (A) (A) (A)
                 (A) (A) (A) (A) (A) (A) (A) (A) (A) (A) (A) (A)
                 (A) (A) (A) (A) (A) (A) (A) (A) (A) (A) (A) (A)
                 (A) (A) (A) (A) (A) (A) (A) (A) (A) (A) (A) (A)
                 (A) (A) (A) (A) (A) (A) (A) (A) (A) (A) (A) (A)
                 (A) (A) (A) (A) (A) (A) (A) (A) (A) (A) (A) (A)
                 (A) (A) (A) (A) (A) (A) (A) (A) (A) (A) (A) (A)
                 (A) (A) (A) (A) (A) (A) (A) (A) (A) (A) (A) (A)
                 (A) (A) (A) (A) (A) (A) (A) (A) (A) (A) (A) (A)
                 (A) (A) (A) (A) (A) (A) (A) (A) (A) (A) (A) (A)
                 (A) (A) (A) (A) (A) (A) (A) (A) (A) (A) (A) (A)
                 (A) (A) (A) (A) (A) (A) (A) (A) (A) (A) (A) (A)
                 (A) (A) (A) (A) (A) (A) (A) (A) (A) (A) (A) (A)
                 (A) (A) (A) (A) (A) (A) (A) (A) (A) (A) (A) (A)
                 (A) (A) (A) (A) (A) (A) (A)
 The electronic state is 1-A.
 Alpha  occ. eigenvalues --  -19.25974 -19.22042 -19.20695 -14.52500 -14.51714
 Alpha  occ. eigenvalues --  -14.49152 -14.48673 -14.47924 -14.46949 -14.46657
 Alpha  occ. eigenvalues --  -14.46551 -14.44716 -14.43247 -14.43102 -14.42360
 Alpha  occ. eigenvalues --  -14.42009 -14.41703 -14.41316 -14.40788 -14.40485
 Alpha  occ. eigenvalues --  -10.45583 -10.41214 -10.40208 -10.38739 -10.38253
 Alpha  occ. eigenvalues --  -10.37744 -10.37237 -10.36279 -10.35668 -10.35582
 Alpha  occ. eigenvalues --  -10.34860 -10.34383 -10.34289 -10.33680 -10.33499
 Alpha  occ. eigenvalues --  -10.33406 -10.33271 -10.31648 -10.31419 -10.30940
 Alpha  occ. eigenvalues --  -10.30578 -10.28808 -10.28059  -1.19539  -1.14376
 Alpha  occ. eigenvalues --   -1.13224  -1.13179  -1.11699  -1.10540  -1.09369
 Alpha  occ. eigenvalues --   -1.08576  -1.08091  -1.05292  -1.03621  -1.02609
 Alpha  occ. eigenvalues --   -1.00690  -1.00129  -0.99741  -0.98530  -0.97273
 Alpha  occ. eigenvalues --   -0.96485  -0.95688  -0.92935  -0.91000  -0.86792
 Alpha  occ. eigenvalues --   -0.85221  -0.84293  -0.84021  -0.83843  -0.82662
 Alpha  occ. eigenvalues --   -0.82332  -0.78885  -0.76055  -0.74580  -0.73834
 Alpha  occ. eigenvalues --   -0.73645  -0.73426  -0.73186  -0.71356  -0.69410
 Alpha  occ. eigenvalues --   -0.67367  -0.66604  -0.66576  -0.65749  -0.64494
 Alpha  occ. eigenvalues --   -0.63744  -0.63278  -0.62931  -0.62660  -0.61723
 Alpha  occ. eigenvalues --   -0.60488  -0.60464  -0.59557  -0.59501  -0.58629
 Alpha  occ. eigenvalues --   -0.58564  -0.58357  -0.56928  -0.56812  -0.56383
 Alpha  occ. eigenvalues --   -0.56031  -0.55630  -0.54679  -0.54577  -0.54415
 Alpha  occ. eigenvalues --   -0.53635  -0.53537  -0.52895  -0.52787  -0.52677
 Alpha  occ. eigenvalues --   -0.52565  -0.52097  -0.51940  -0.51151  -0.50519
 Alpha  occ. eigenvalues --   -0.50145  -0.49551  -0.49468  -0.49271  -0.48836
 Alpha  occ. eigenvalues --   -0.48803  -0.48325  -0.47809  -0.47535  -0.47427
 Alpha  occ. eigenvalues --   -0.47258  -0.45493  -0.45272  -0.43928  -0.43556
 Alpha  occ. eigenvalues --   -0.41497  -0.39845  -0.39524  -0.37478  -0.37257
 Alpha  occ. eigenvalues --   -0.37230  -0.36965  -0.36628  -0.35846  -0.34174
 Alpha  occ. eigenvalues --   -0.34037  -0.33735  -0.33660  -0.33360  -0.33228
 Alpha  occ. eigenvalues --   -0.32696  -0.32267  -0.31958  -0.31871  -0.31276
 Alpha  occ. eigenvalues --   -0.30696  -0.28705  -0.26075  -0.25342
 Alpha virt. eigenvalues --    0.02990   0.04949   0.07676   0.08063   0.08356
 Alpha virt. eigenvalues --    0.08976   0.09765   0.10681   0.10776   0.11796
 Alpha virt. eigenvalues --    0.13186   0.13792   0.14533   0.14646   0.15248
 Alpha virt. eigenvalues --    0.15581   0.16311   0.17029   0.17685   0.18572
 Alpha virt. eigenvalues --    0.18740   0.19319   0.19634   0.20012   0.20299
 Alpha virt. eigenvalues --    0.20729   0.21000   0.21214   0.21466   0.22384
 Alpha virt. eigenvalues --    0.22774   0.23122   0.23370   0.23661   0.23750
 Alpha virt. eigenvalues --    0.23855   0.24310   0.24447   0.24863   0.25508
 Alpha virt. eigenvalues --    0.25938   0.26211   0.26661   0.27507   0.28038
 Alpha virt. eigenvalues --    0.28644   0.29083   0.29892   0.30203   0.30654
 Alpha virt. eigenvalues --    0.31309   0.31749   0.32497   0.32896   0.33781
 Alpha virt. eigenvalues --    0.33892   0.34257   0.34920   0.35998   0.36248
 Alpha virt. eigenvalues --    0.36743   0.37729   0.37753   0.38975   0.39586
 Alpha virt. eigenvalues --    0.40073   0.40702   0.41074   0.41432   0.41857
 Alpha virt. eigenvalues --    0.41993   0.42492   0.42874   0.44211   0.44324
 Alpha virt. eigenvalues --    0.44708   0.45151   0.45958   0.46396   0.46604
 Alpha virt. eigenvalues --    0.47478   0.47843   0.48415   0.49260   0.49735
 Alpha virt. eigenvalues --    0.49918   0.50273   0.50424   0.50776   0.50945
 Alpha virt. eigenvalues --    0.51650   0.51976   0.52126   0.53240   0.53421
 Alpha virt. eigenvalues --    0.53899   0.54343   0.54365   0.54904   0.55140
 Alpha virt. eigenvalues --    0.55653   0.55844   0.56199   0.56462   0.57259
 Alpha virt. eigenvalues --    0.57648   0.57892   0.58819   0.59249   0.59814
 Alpha virt. eigenvalues --    0.60282   0.60529   0.60669   0.61353   0.61589
 Alpha virt. eigenvalues --    0.61694   0.62111   0.62820   0.63113   0.63976
 Alpha virt. eigenvalues --    0.64233   0.64319   0.64907   0.65339   0.65563
 Alpha virt. eigenvalues --    0.65968   0.66253   0.66560   0.67175   0.67195
 Alpha virt. eigenvalues --    0.67833   0.68022   0.68473   0.68884   0.69501
 Alpha virt. eigenvalues --    0.70161   0.70624   0.71338   0.71506   0.72333
 Alpha virt. eigenvalues --    0.72765   0.73027   0.73181   0.73339   0.73760
 Alpha virt. eigenvalues --    0.73978   0.74578   0.74963   0.75060   0.75397
 Alpha virt. eigenvalues --    0.75795   0.76117   0.76357   0.76753   0.76831
 Alpha virt. eigenvalues --    0.77801   0.78058   0.78788   0.78944   0.79063
 Alpha virt. eigenvalues --    0.79286   0.79640   0.80070   0.80388   0.80750
 Alpha virt. eigenvalues --    0.81319   0.81917   0.82253   0.83126   0.83562
 Alpha virt. eigenvalues --    0.83994   0.84119   0.84471   0.84969   0.85555
 Alpha virt. eigenvalues --    0.86069   0.86261   0.87062   0.87390   0.87806
 Alpha virt. eigenvalues --    0.88082   0.88463   0.88656   0.89623   0.89852
 Alpha virt. eigenvalues --    0.89945   0.90757   0.91133   0.91999   0.92459
 Alpha virt. eigenvalues --    0.93121   0.93429   0.93802   0.94175   0.94843
 Alpha virt. eigenvalues --    0.95109   0.95525   0.95689   0.96102   0.96191
 Alpha virt. eigenvalues --    0.96766   0.97447   0.97765   0.98052   0.98361
 Alpha virt. eigenvalues --    0.98946   0.99323   0.99843   1.00196   1.00892
 Alpha virt. eigenvalues --    1.01353   1.01761   1.02225   1.02797   1.02885
 Alpha virt. eigenvalues --    1.03809   1.04184   1.04541   1.04988   1.05510
 Alpha virt. eigenvalues --    1.05805   1.06261   1.07064   1.07361   1.07690
 Alpha virt. eigenvalues --    1.08092   1.08258   1.09105   1.10184   1.10486
 Alpha virt. eigenvalues --    1.11070   1.12388   1.12808   1.12939   1.13280
 Alpha virt. eigenvalues --    1.13950   1.14475   1.15110   1.15606   1.15835
 Alpha virt. eigenvalues --    1.16232   1.16634   1.17082   1.17945   1.18135
 Alpha virt. eigenvalues --    1.18970   1.19232   1.19521   1.19827   1.20011
 Alpha virt. eigenvalues --    1.20682   1.21081   1.21198   1.21499   1.21899
 Alpha virt. eigenvalues --    1.22415   1.22862   1.23017   1.23196   1.23490
 Alpha virt. eigenvalues --    1.23746   1.24280   1.24380   1.24726   1.25515
 Alpha virt. eigenvalues --    1.26438   1.26608   1.26841   1.27299   1.28067
 Alpha virt. eigenvalues --    1.28899   1.29411   1.29909   1.30461   1.30799
 Alpha virt. eigenvalues --    1.31919   1.32304   1.32449   1.33395   1.33780
 Alpha virt. eigenvalues --    1.34557   1.34641   1.36065   1.36592   1.37191
 Alpha virt. eigenvalues --    1.37544   1.38159   1.39261   1.40011   1.40108
 Alpha virt. eigenvalues --    1.41463   1.42144   1.42436   1.42670   1.43803
 Alpha virt. eigenvalues --    1.45007   1.45314   1.46610   1.47290   1.48384
 Alpha virt. eigenvalues --    1.48799   1.49456   1.49508   1.49919   1.50702
 Alpha virt. eigenvalues --    1.51686   1.52535   1.53140   1.53648   1.53771
 Alpha virt. eigenvalues --    1.54831   1.55616   1.56051   1.56502   1.57536
 Alpha virt. eigenvalues --    1.58684   1.58777   1.59599   1.60410   1.60948
 Alpha virt. eigenvalues --    1.62177   1.62395   1.62714   1.63302   1.63847
 Alpha virt. eigenvalues --    1.63931   1.64929   1.65939   1.66496   1.66902
 Alpha virt. eigenvalues --    1.67108   1.67802   1.67966   1.68584   1.69321
 Alpha virt. eigenvalues --    1.69714   1.70417   1.71195   1.71329   1.71638
 Alpha virt. eigenvalues --    1.72119   1.72446   1.72891   1.73178   1.73891
 Alpha virt. eigenvalues --    1.74196   1.74717   1.74828   1.75114   1.75222
 Alpha virt. eigenvalues --    1.75403   1.75970   1.76758   1.77060   1.77655
 Alpha virt. eigenvalues --    1.78025   1.78287   1.78686   1.79064   1.79283
 Alpha virt. eigenvalues --    1.79573   1.79782   1.79913   1.80168   1.80307
 Alpha virt. eigenvalues --    1.81029   1.81444   1.81725   1.82026   1.82599
 Alpha virt. eigenvalues --    1.82681   1.83251   1.83863   1.84471   1.84798
 Alpha virt. eigenvalues --    1.85815   1.85975   1.86746   1.86802   1.87261
 Alpha virt. eigenvalues --    1.87350   1.88040   1.88188   1.88935   1.89589
 Alpha virt. eigenvalues --    1.90213   1.90356   1.90999   1.91652   1.91917
 Alpha virt. eigenvalues --    1.92119   1.92670   1.93201   1.93347   1.93677
 Alpha virt. eigenvalues --    1.94488   1.95426   1.96186   1.96932   1.97545
 Alpha virt. eigenvalues --    1.99009   1.99708   2.00319   2.01019   2.01087
 Alpha virt. eigenvalues --    2.01711   2.01887   2.02872   2.03333   2.03680
 Alpha virt. eigenvalues --    2.04232   2.04871   2.05881   2.07048   2.07736
 Alpha virt. eigenvalues --    2.08149   2.08688   2.08911   2.09005   2.09403
 Alpha virt. eigenvalues --    2.10588   2.11045   2.12020   2.12122   2.13360
 Alpha virt. eigenvalues --    2.14257   2.15253   2.16772   2.17545   2.17852
 Alpha virt. eigenvalues --    2.18837   2.19626   2.20291   2.20983   2.21423
 Alpha virt. eigenvalues --    2.22026   2.22477   2.23010   2.23695   2.24134
 Alpha virt. eigenvalues --    2.24795   2.25191   2.25652   2.26496   2.27071
 Alpha virt. eigenvalues --    2.27459   2.28057   2.28372   2.29524   2.29623
 Alpha virt. eigenvalues --    2.30375   2.30813   2.31217   2.31963   2.32845
 Alpha virt. eigenvalues --    2.33029   2.33586   2.33741   2.34178   2.34627
 Alpha virt. eigenvalues --    2.35284   2.35354   2.35706   2.36903   2.37810
 Alpha virt. eigenvalues --    2.38055   2.39202   2.40214   2.40866   2.41672
 Alpha virt. eigenvalues --    2.41784   2.42824   2.43140   2.43347   2.44017
 Alpha virt. eigenvalues --    2.44978   2.45579   2.46225   2.46629   2.46797
 Alpha virt. eigenvalues --    2.47071   2.49289   2.50032   2.50552   2.51327
 Alpha virt. eigenvalues --    2.51790   2.54557   2.54731   2.55741   2.56047
 Alpha virt. eigenvalues --    2.56470   2.57502   2.58429   2.59357   2.60217
 Alpha virt. eigenvalues --    2.61140   2.61966   2.62128   2.62640   2.62748
 Alpha virt. eigenvalues --    2.64270   2.65058   2.65381   2.66060   2.66071
 Alpha virt. eigenvalues --    2.67052   2.67980   2.68315   2.68722   2.69391
 Alpha virt. eigenvalues --    2.70039   2.71128   2.71305   2.72068   2.72903
 Alpha virt. eigenvalues --    2.73291   2.73937   2.75165   2.75433   2.76418
 Alpha virt. eigenvalues --    2.77583   2.77793   2.79028   2.79474   2.79569
 Alpha virt. eigenvalues --    2.80128   2.80152   2.80404   2.81322   2.81688
 Alpha virt. eigenvalues --    2.82188   2.82487   2.82694   2.83654   2.84296
 Alpha virt. eigenvalues --    2.84834   2.84874   2.86312   2.86717   2.87085
 Alpha virt. eigenvalues --    2.87671   2.88188   2.89012   2.91897   2.93091
 Alpha virt. eigenvalues --    2.94360   2.95739   2.96700   2.97325   2.99224
 Alpha virt. eigenvalues --    2.99429   3.00559   3.01658   3.04821   3.06117
 Alpha virt. eigenvalues --    3.06626   3.09952   3.11689   3.13307   3.14907
 Alpha virt. eigenvalues --    3.15465   3.15918   3.16449   3.18436   3.20040
 Alpha virt. eigenvalues --    3.22655   3.23206   3.23575   3.23775   3.26836
 Alpha virt. eigenvalues --    3.45795   3.47131   3.47819   3.49874   3.50356
 Alpha virt. eigenvalues --    3.53229   3.54983   3.56178   3.57742   3.59970
 Alpha virt. eigenvalues --    3.62992   3.70503   3.74805
          Condensed to atoms (all electrons):
 Mulliken charges:
               1
     1  N   -0.310562
     2  C    0.180140
     3  C    0.054140
     4  N   -0.252800
     5  C    0.128420
     6  H    0.026853
     7  N   -0.287201
     8  C    0.133197
     9  H    0.014042
    10  N   -0.291672
    11  C    0.228672
    12  C    0.101515
    13  N   -0.043048
    14  H    0.110956
    15  H    0.091516
    16  H    0.027411
    17  H    0.033865
    18  H    0.023162
    19  N   -0.305685
    20  C    0.256996
    21  C    0.180578
    22  N   -0.117593
    23  H    0.113447
    24  H    0.117178
    25  N   -0.308315
    26  C    0.240361
    27  N   -0.142941
    28  H    0.119990
    29  C    0.173141
    30  O   -0.324684
    31  C   -0.007892
    32  N   -0.223845
    33  C    0.128675
    34  H    0.023494
    35  H    0.029214
    36  H    0.027833
    37  H    0.021809
    38  H    0.048420
    39  H    0.062643
    40  H    0.073923
    41  H    0.026675
    42  C   -0.102134
    43  O   -0.279064
    44  C    0.158632
    45  H    0.136320
    46  N   -0.123130
    47  O   -0.345349
    48  C    0.347074
    49  H    0.045508
    50  C    0.187220
    51  C    0.041242
    52  N   -0.281461
    53  H    0.032977
    54  H    0.040096
    55  H    0.020320
    56  H    0.125802
    57  H    0.116550
    58  N   -0.039629
    59  C    0.101984
    60  C    0.245419
    61  N   -0.275594
    62  H    0.035181
    63  C    0.161055
    64  N   -0.303335
    65  H    0.032437
    66  C    0.116136
    67  N   -0.250732
    68  C    0.000201
    69  C    0.181233
    70  N   -0.306988
 Sum of Mulliken charges =  -0.00000
 Mulliken charges with hydrogens summed into heavy atoms:
               1
     1  N   -0.310562
     2  C    0.264578
     3  C    0.054140
     4  N   -0.252800
     5  C    0.155273
     7  N   -0.287201
     8  C    0.147239
    10  N   -0.291672
    11  C    0.228672
    12  C    0.101515
    13  N    0.159424
    19  N   -0.305685
    20  C    0.256996
    21  C    0.259434
    22  N    0.113032
    25  N   -0.308315
    26  C    0.240361
    27  N   -0.022951
    29  C    0.173141
    30  O   -0.324684
    31  C   -0.007892
    32  N   -0.223845
    33  C    0.152169
    42  C   -0.075458
    43  O   -0.279064
    44  C    0.158632
    46  N    0.013190
    47  O   -0.345349
    48  C    0.347074
    50  C    0.232728
    51  C    0.226228
    52  N   -0.281461
    58  N    0.202723
    59  C    0.101984
    60  C    0.245419
    61  N   -0.275594
    63  C    0.196236
    64  N   -0.303335
    66  C    0.148572
    67  N   -0.250732
    68  C    0.000201
    69  C    0.274626
    70  N   -0.306988
 Electronic spatial extent (au):  <R**2>=          22695.2568
 Charge=             -0.0000 electrons
 Dipole moment (field-independent basis, Debye):
    X=              6.3172    Y=              6.0801    Z=              3.4898  Tot=              9.4368
 Quadrupole moment (field-independent basis, Debye-Ang):
   XX=           -143.8516   YY=           -224.6048   ZZ=           -256.3246
   XY=              9.0260   XZ=             11.7708   YZ=             -1.2388
 Traceless Quadrupole moment (field-independent basis, Debye-Ang):
   XX=             64.4087   YY=            -16.3444   ZZ=            -48.0643
   XY=              9.0260   XZ=             11.7708   YZ=             -1.2388
 Octapole moment (field-independent basis, Debye-Ang**2):
  XXX=            -37.5056  YYY=             63.9545  ZZZ=             46.8858  XYY=             29.6620
  XXY=             65.1853  XXZ=            -23.0782  XZZ=             64.1442  YZZ=             55.3308
  YYZ=             31.3515  XYZ=             44.0320
 Hexadecapole moment (field-independent basis, Debye-Ang**3):
 XXXX=         -15736.0504 YYYY=          -4376.6686 ZZZZ=          -3643.3662 XXXY=            522.1281
 XXXZ=            147.0027 YYYX=            -51.5872 YYYZ=             66.0439 ZZZX=            192.8792
 ZZZY=             36.8485 XXYY=          -4050.7026 XXZZ=          -4014.6749 YYZZ=          -1464.3720
 XXYZ=             88.7785 YYXZ=             92.1659 ZZXY=            132.5571
 N-N= 5.517343670403D+03 E-N=-1.581562937805D+04  KE= 2.037715071959D+03
 No NMR shielding tensors so no spin-rotation constants.
 Leave Link  601 at Sat Jan 20 11:06:48 2018, MaxMem=  4294967296 cpu:              48.3 elap:               1.7
 (Enter /share/apps/g16/l9999.exe)
 1\1\GINC-COMPUTE-0-3\SP\RwB97XD\CC-pVDZ\C23H27N17O3\SATYA\20-Jan-2018\
 0\\#p wb97xd/cc-pvdz sp scf=(maxcycles=20)\\Base pair stacking\\0,1\N,
 0,5.37556,6.21405,-5.84686\C,0,5.66314,7.64326,-6.07634\C,0,4.38869,4.
 2501,-5.76757\N,0,5.65137,4.0723,-5.22098\C,0,6.19538,5.26262,-5.29062
 \H,0,7.20154,5.50548,-4.94769\N,0,2.19711,3.86329,-6.54877\C,0,2.16579
 ,5.15987,-6.87354\H,0,1.23695,5.50339,-7.32686\N,0,3.10518,6.09144,-6.
 72313\C,0,4.2042,5.56507,-6.15788\C,0,3.31713,3.3642,-5.98172\N,0,3.35
 031,2.07017,-5.65682\H,0,4.15863,1.65794,-5.23504\H,0,2.56875,1.46899,
 -5.82383\H,0,6.45332,7.73248,-6.68284\H,0,4.8693,8.08019,-6.49829\H,0,
 5.86265,8.08953,-5.20397\N,0,1.2871,5.84335,-3.28367\C,0,0.4633,4.7478
 4,-3.37979\C,0,0.87408,7.24398,-3.50356\N,0,-2.67271,3.38731,-3.99312\
 H,0,-3.09252,2.4803,-4.0114\H,0,-3.26559,4.16595,-4.20029\N,0,-0.85132
 ,4.7667,-3.68878\C,0,-1.37317,3.553,-3.70391\N,0,-0.66361,2.4072,-3.43
 713\H,0,-1.14502,1.52176,-3.4717\C,0,0.68972,2.36412,-3.11695\O,0,1.23
 535,1.2764,-2.89361\C,0,1.26414,3.66047,-3.09682\N,0,2.56456,4.06519,-
 2.82844\C,0,2.53068,5.36446,-2.95077\H,0,3.38738,6.0241,-2.80858\H,0,1
 .40378,7.63534,-4.25526\H,0,-0.09796,7.27048,-3.73314\H,0,1.03362,7.77
 477,-2.67192\H,0,-3.95967,-2.60159,-4.43528\H,0,-4.14468,-2.62947,-2.6
 8324\H,0,-3.96247,-1.0904,-3.52551\H,0,0.27353,-4.48,-3.13216\C,0,-0.2
 2224,-3.50991,-3.16907\O,0,1.78594,-2.26871,-2.93727\C,0,0.56304,-2.31
 794,-3.06718\H,0,0.35774,-0.28175,-3.05645\N,0,-0.16247,-1.14511,-3.12
 513\O,0,-2.07483,0.06597,-3.30778\C,0,-1.52174,-1.01895,-3.26665\H,0,-
 2.19216,-4.29517,-3.38958\C,0,-1.55007,-3.41916,-3.30784\C,0,-3.66469,
 -2.1283,-3.51058\N,0,-2.20957,-2.21298,-3.35828\H,0,-4.23088,-0.42129,
 -8.28246\H,0,-3.82194,0.83382,-7.32351\H,0,-4.69086,-0.40748,-6.71669\
 H,0,2.53419,-1.50726,-5.43288\H,0,1.44589,-2.78434,-5.74077\N,0,1.6157
 3,-1.79909,-5.70013\C,0,0.65922,-0.91453,-5.98966\C,0,-1.52883,-0.2420
 8,-6.63924\N,0,-1.27219,1.07495,-6.57621\H,0,0.28277,2.3337,-6.13096\C
 ,0,-0.0106,1.28758,-6.20734\N,0,0.94894,0.40299,-5.91691\H,0,-3.26685,
 -2.92454,-7.12489\C,0,-2.48512,-2.19782,-6.90193\N,0,-1.26351,-2.50487
 ,-6.53991\C,0,-0.64654,-1.27391,-6.37014\C,0,-3.96452,-0.15499,-7.3561
 \N,0,-2.71523,-0.84604,-6.98232\\Version=EM64L-G16RevA.03\State=1-A\HF
 =-2048.750927\RMSD=6.671e-09\Dipole=-3.6086968,-0.4973716,-0.7170912\Q
 uadrupole=15.4654019,19.2692205,-34.7346224,31.9893332,-2.960193,6.384
 4491\PG=C01 [X(C23H27N17O3)]\\@


 THE VALUE OF PHILOSOPHY IS, IN FACT, TO BE SOUGHT LARGELY IN ITS
 VERY UNCERTAINTY.  THE MAN WHO HAS NO TINCTURE OF PHILOSOPHY GOES
 THROUGH LIFE IMPRISONED IN THE PREJUDICES DERIVED FROM COMMON SENSE,
 FROM THE HABITUAL BELIEFS OF HIS AGE OR HIS NATION, AND FROM
 CONVICTIONS WHICH HAVE GROWN UP IN HIS MIND WITHOUT THE CO-OPERATION
 OR CONSENT OF HIS DELIBERATE REASON.  TO SUCH A MAN THE WORLD TENDS
 TO BE DEFINITE, FINITE, OBVIOUS; COMMON OBJECTS ROUSE NO QUESTIONS,
 AND UNFAMILIAR POSSIBILITIES ARE CONTEMPTUOUSLY REJECTED.

                             -- BERTRAND RUSSELL
 Job cpu time:       0 days  6 hours  2 minutes 34.3 seconds.
 Elapsed time:       0 days  0 hours 11 minutes 44.3 seconds.
 File lengths (MBytes):  RWF=    298 Int=      0 D2E=      0 Chk=     33 Scr=      1
 Normal termination of Gaussian 16 at Sat Jan 20 11:06:49 2018.
