 Entering Gaussian System, Link 0=g16
 Input=str25.-5.2.0.com
 Output=str25.-5.2.0.log
 Initial command:
 /share/apps/g16/l1.exe "/state/partition1/scr/Gau-25891.inp" -scrdir="/state/partition1/scr/"
 Entering Link 1 = /share/apps/g16/l1.exe PID=     25892.
  
 Copyright (c) 1988,1990,1992,1993,1995,1998,2003,2009,2016,
            Gaussian, Inc.  All Rights Reserved.
  
 This is part of the Gaussian(R) 16 program.  It is based on
 the Gaussian(R) 09 system (copyright 2009, Gaussian, Inc.),
 the Gaussian(R) 03 system (copyright 2003, Gaussian, Inc.),
 the Gaussian(R) 98 system (copyright 1998, Gaussian, Inc.),
 the Gaussian(R) 94 system (copyright 1995, Gaussian, Inc.),
 the Gaussian 92(TM) system (copyright 1992, Gaussian, Inc.),
 the Gaussian 90(TM) system (copyright 1990, Gaussian, Inc.),
 the Gaussian 88(TM) system (copyright 1988, Gaussian, Inc.),
 the Gaussian 86(TM) system (copyright 1986, Carnegie Mellon
 University), and the Gaussian 82(TM) system (copyright 1983,
 Carnegie Mellon University). Gaussian is a federally registered
 trademark of Gaussian, Inc.
  
 This software contains proprietary and confidential information,
 including trade secrets, belonging to Gaussian, Inc.
  
 This software is provided under written license and may be
 used, copied, transmitted, or stored only in accord with that
 written license.
  
 The following legend is applicable only to US Government
 contracts under FAR:
  
                    RESTRICTED RIGHTS LEGEND
  
 Use, reproduction and disclosure by the US Government is
 subject to restrictions as set forth in subparagraphs (a)
 and (c) of the Commercial Computer Software - Restricted
 Rights clause in FAR 52.227-19.
  
 Gaussian, Inc.
 340 Quinnipiac St., Bldg. 40, Wallingford CT 06492
  
  
 ---------------------------------------------------------------
 Warning -- This program may not be used in any manner that
 competes with the business of Gaussian, Inc. or will provide
 assistance to any competitor of Gaussian, Inc.  The licensee
 of this program is prohibited from giving any competitor of
 Gaussian, Inc. access to this program.  By using this program,
 the user acknowledges that Gaussian, Inc. is engaged in the
 business of creating and licensing software in the field of
 computational chemistry and represents and warrants to the
 licensee that it is not a competitor of Gaussian, Inc. and that
 it will not use this program in any manner prohibited above.
 ---------------------------------------------------------------
  

 Cite this work as:
 Gaussian 16, Revision A.03,
 M. J. Frisch, G. W. Trucks, H. B. Schlegel, G. E. Scuseria, 
 M. A. Robb, J. R. Cheeseman, G. Scalmani, V. Barone, 
 G. A. Petersson, H. Nakatsuji, X. Li, M. Caricato, A. V. Marenich, 
 J. Bloino, B. G. Janesko, R. Gomperts, B. Mennucci, H. P. Hratchian, 
 J. V. Ortiz, A. F. Izmaylov, J. L. Sonnenberg, D. Williams-Young, 
 F. Ding, F. Lipparini, F. Egidi, J. Goings, B. Peng, A. Petrone, 
 T. Henderson, D. Ranasinghe, V. G. Zakrzewski, J. Gao, N. Rega, 
 G. Zheng, W. Liang, M. Hada, M. Ehara, K. Toyota, R. Fukuda, 
 J. Hasegawa, M. Ishida, T. Nakajima, Y. Honda, O. Kitao, H. Nakai, 
 T. Vreven, K. Throssell, J. A. Montgomery, Jr., J. E. Peralta, 
 F. Ogliaro, M. J. Bearpark, J. J. Heyd, E. N. Brothers, K. N. Kudin, 
 V. N. Staroverov, T. A. Keith, R. Kobayashi, J. Normand, 
 K. Raghavachari, A. P. Rendell, J. C. Burant, S. S. Iyengar, 
 J. Tomasi, M. Cossi, J. M. Millam, M. Klene, C. Adamo, R. Cammi, 
 J. W. Ochterski, R. L. Martin, K. Morokuma, O. Farkas, 
 J. B. Foresman, and D. J. Fox, Gaussian, Inc., Wallingford CT, 2016.
 
 ******************************************
 Gaussian 16:  EM64L-G16RevA.03 25-Dec-2016
                21-Jan-2018 
 ******************************************
 %nprocshared=32
 Will use up to   32 processors via shared memory.
 %mem=32GB
 %chk=allatoms_t.chk
 ---------------------------------------
 #p wb97xd/cc-pvdz sp scf=(maxcycles=20)
 ---------------------------------------
 1/38=1,172=1/1;
 2/12=2,17=6,18=5,40=1/2;
 3/5=16,11=2,25=1,30=1,74=-58/1,2,3;
 4//1;
 5/5=2,7=20,38=5/2;
 6/7=2,8=2,9=2,10=2,28=1/1;
 99/5=1,9=1/99;
 Leave Link    1 at Sun Jan 21 01:30:34 2018, MaxMem=  4294967296 cpu:               2.7 elap:               0.1
 (Enter /share/apps/g16/l101.exe)
 ------------------
 Base pair stacking
 ------------------
 Symbolic Z-matrix:
 Charge =  0 Multiplicity = 1
 N                     1.29738   1.29604  -6.5262 
 C                     1.51411   2.75546  -6.55953 
 C                     0.36455  -0.69351  -6.43206 
 N                     1.7311   -0.91003  -6.53398 
 C                     2.2384    0.29726  -6.58662 
 H                     3.30261   0.51948  -6.67049 
 N                    -1.9626   -1.03157  -6.25036 
 C                    -2.07958   0.3003   -6.25673 
 H                    -3.09852   0.67795  -6.18322 
 N                    -1.13132   1.23131  -6.33989 
 C                     0.082     0.66136  -6.42604 
 C                    -0.7285   -1.57407  -6.33842 
 N                    -0.60968  -2.90336  -6.33222 
 H                     0.28433  -3.34831  -6.39541 
 H                    -1.40979  -3.49947  -6.26423 
 H                     1.9661    3.00723  -7.4154 
 H                     0.63407   3.22538  -6.49769 
 H                     2.08984   3.02674  -5.78821 
 N                     0.19228   2.92716  -3.21657 
 C                    -0.63604   1.83197  -3.16662 
 C                    -0.2542    4.33436  -3.25055 
 N                    -3.83416   0.4819   -3.06154 
 H                    -4.2507   -0.42609  -3.02553 
 H                    -4.45536   1.26593  -3.07303 
 N                    -1.98612   1.85716  -3.14041 
 C                    -2.50251   0.64196  -3.09303 
 N                    -1.75564  -0.51099  -3.0728 
 H                    -2.23577  -1.39705  -3.03619 
 C                    -0.36542  -0.56065  -3.09907 
 O                     0.21221  -1.65455  -3.07726 
 C                     0.20363   0.73722  -3.15002 
 N                     1.53235   1.13707  -3.18877 
 C                     1.47679   2.44077  -3.22741 
 H                     2.34585   3.0985   -3.26484 
 H                     0.07597   4.77044  -4.08699 
 H                    -1.25266   4.36557  -3.23155 
 H                     0.10857   4.82017  -2.45607 
 H                    -5.22466  -5.484    -3.50098 
 H                    -4.97198  -5.60906  -1.76168 
 H                    -4.99434  -4.02486  -2.53702 
 H                    -0.81165  -7.39683  -3.38711 
 C                    -1.29565  -6.43018  -3.2473 
 O                     0.71473  -5.18745  -3.45 
 C                    -0.5027   -5.23931  -3.27687 
 H                    -0.68735  -3.20846  -3.10402 
 N                    -1.21336  -4.07091  -3.08961 
 O                    -3.10473  -2.86702  -2.72828 
 C                    -2.56479  -3.94811  -2.88446 
 H                    -3.26355  -7.21798  -3.01806 
 C                    -2.61614  -6.34263  -3.04917 
 C                    -4.70802  -5.0596   -2.65302 
 N                    -3.2608   -5.14082  -2.8691 
 H                    -8.67284  -5.21631  -5.87235 
 H                    -7.83859  -4.16023  -4.94995 
 H                    -8.40755  -5.54302  -4.29555 
 H                    -1.39082  -6.49094  -6.51501 
 H                    -2.55526  -7.73608  -6.57653 
 N                    -2.34522  -6.7716   -6.41259 
 C                    -3.29634  -5.8993   -6.07256 
 C                    -5.52076  -5.22774  -5.56 
 N                    -5.20956  -3.93864  -5.346 
 H                    -3.56618  -2.71414  -5.36923 
 C                    -3.90537  -3.73755  -5.52364 
 N                    -2.95113  -4.60992  -5.86422 
 H                    -7.40356  -7.84629  -5.78451 
 C                    -6.57399  -7.13868  -5.77775 
 N                    -5.32961  -7.4466   -6.05048 
 C                    -4.65121  -6.24393  -5.91605 
 C                    -8.02075  -5.12835  -5.11933 
 N                    -6.76176  -5.81272  -5.47228 
 
 ITRead=  0  0  0  0  0  0  0  0  0  0  0  0  0  0  0  0  0  0  0  0
 ITRead=  0  0  0  0  0  0  0  0  0  0  0  0  0  0  0  0  0  0  0  0
 ITRead=  0  0  0  0  0  0  0  0  0  0  0  0  0  0  0  0  0  0  0  0
 ITRead=  0  0  0  0  0  0  0  0  0  0
 MicOpt= -1 -1 -1 -1 -1 -1 -1 -1 -1 -1 -1 -1 -1 -1 -1 -1 -1 -1 -1 -1
 MicOpt= -1 -1 -1 -1 -1 -1 -1 -1 -1 -1 -1 -1 -1 -1 -1 -1 -1 -1 -1 -1
 MicOpt= -1 -1 -1 -1 -1 -1 -1 -1 -1 -1 -1 -1 -1 -1 -1 -1 -1 -1 -1 -1
 MicOpt= -1 -1 -1 -1 -1 -1 -1 -1 -1 -1
 NAtoms=     70 NQM=       70 NQMF=       0 NMMI=      0 NMMIF=      0
                NMic=       0 NMicF=      0.
                    Isotopes and Nuclear Properties:
 (Nuclear quadrupole moments (NQMom) in fm**2, nuclear magnetic moments (NMagM)
  in nuclear magnetons)

  Atom         1           2           3           4           5           6           7           8           9          10
 IAtWgt=          14          12          12          14          12           1          14          12           1          14
 AtmWgt=  14.0030740  12.0000000  12.0000000  14.0030740  12.0000000   1.0078250  14.0030740  12.0000000   1.0078250  14.0030740
 NucSpn=           2           0           0           2           0           1           2           0           1           2
 AtZEff=  -0.0000000  -0.0000000  -0.0000000  -0.0000000  -0.0000000  -0.0000000  -0.0000000  -0.0000000  -0.0000000  -0.0000000
 NQMom=    2.0440000   0.0000000   0.0000000   2.0440000   0.0000000   0.0000000   2.0440000   0.0000000   0.0000000   2.0440000
 NMagM=    0.4037610   0.0000000   0.0000000   0.4037610   0.0000000   2.7928460   0.4037610   0.0000000   2.7928460   0.4037610
 AtZNuc=   7.0000000   6.0000000   6.0000000   7.0000000   6.0000000   1.0000000   7.0000000   6.0000000   1.0000000   7.0000000

  Atom        11          12          13          14          15          16          17          18          19          20
 IAtWgt=          12          12          14           1           1           1           1           1          14          12
 AtmWgt=  12.0000000  12.0000000  14.0030740   1.0078250   1.0078250   1.0078250   1.0078250   1.0078250  14.0030740  12.0000000
 NucSpn=           0           0           2           1           1           1           1           1           2           0
 AtZEff=  -0.0000000  -0.0000000  -0.0000000  -0.0000000  -0.0000000  -0.0000000  -0.0000000  -0.0000000  -0.0000000  -0.0000000
 NQMom=    0.0000000   0.0000000   2.0440000   0.0000000   0.0000000   0.0000000   0.0000000   0.0000000   2.0440000   0.0000000
 NMagM=    0.0000000   0.0000000   0.4037610   2.7928460   2.7928460   2.7928460   2.7928460   2.7928460   0.4037610   0.0000000
 AtZNuc=   6.0000000   6.0000000   7.0000000   1.0000000   1.0000000   1.0000000   1.0000000   1.0000000   7.0000000   6.0000000

  Atom        21          22          23          24          25          26          27          28          29          30
 IAtWgt=          12          14           1           1          14          12          14           1          12          16
 AtmWgt=  12.0000000  14.0030740   1.0078250   1.0078250  14.0030740  12.0000000  14.0030740   1.0078250  12.0000000  15.9949146
 NucSpn=           0           2           1           1           2           0           2           1           0           0
 AtZEff=  -0.0000000  -0.0000000  -0.0000000  -0.0000000  -0.0000000  -0.0000000  -0.0000000  -0.0000000  -0.0000000  -0.0000000
 NQMom=    0.0000000   2.0440000   0.0000000   0.0000000   2.0440000   0.0000000   2.0440000   0.0000000   0.0000000   0.0000000
 NMagM=    0.0000000   0.4037610   2.7928460   2.7928460   0.4037610   0.0000000   0.4037610   2.7928460   0.0000000   0.0000000
 AtZNuc=   6.0000000   7.0000000   1.0000000   1.0000000   7.0000000   6.0000000   7.0000000   1.0000000   6.0000000   8.0000000

  Atom        31          32          33          34          35          36          37          38          39          40
 IAtWgt=          12          14          12           1           1           1           1           1           1           1
 AtmWgt=  12.0000000  14.0030740  12.0000000   1.0078250   1.0078250   1.0078250   1.0078250   1.0078250   1.0078250   1.0078250
 NucSpn=           0           2           0           1           1           1           1           1           1           1
 AtZEff=  -0.0000000  -0.0000000  -0.0000000  -0.0000000  -0.0000000  -0.0000000  -0.0000000  -0.0000000  -0.0000000  -0.0000000
 NQMom=    0.0000000   2.0440000   0.0000000   0.0000000   0.0000000   0.0000000   0.0000000   0.0000000   0.0000000   0.0000000
 NMagM=    0.0000000   0.4037610   0.0000000   2.7928460   2.7928460   2.7928460   2.7928460   2.7928460   2.7928460   2.7928460
 AtZNuc=   6.0000000   7.0000000   6.0000000   1.0000000   1.0000000   1.0000000   1.0000000   1.0000000   1.0000000   1.0000000

  Atom        41          42          43          44          45          46          47          48          49          50
 IAtWgt=           1          12          16          12           1          14          16          12           1          12
 AtmWgt=   1.0078250  12.0000000  15.9949146  12.0000000   1.0078250  14.0030740  15.9949146  12.0000000   1.0078250  12.0000000
 NucSpn=           1           0           0           0           1           2           0           0           1           0
 AtZEff=  -0.0000000  -0.0000000  -0.0000000  -0.0000000  -0.0000000  -0.0000000  -0.0000000  -0.0000000  -0.0000000  -0.0000000
 NQMom=    0.0000000   0.0000000   0.0000000   0.0000000   0.0000000   2.0440000   0.0000000   0.0000000   0.0000000   0.0000000
 NMagM=    2.7928460   0.0000000   0.0000000   0.0000000   2.7928460   0.4037610   0.0000000   0.0000000   2.7928460   0.0000000
 AtZNuc=   1.0000000   6.0000000   8.0000000   6.0000000   1.0000000   7.0000000   8.0000000   6.0000000   1.0000000   6.0000000

  Atom        51          52          53          54          55          56          57          58          59          60
 IAtWgt=          12          14           1           1           1           1           1          14          12          12
 AtmWgt=  12.0000000  14.0030740   1.0078250   1.0078250   1.0078250   1.0078250   1.0078250  14.0030740  12.0000000  12.0000000
 NucSpn=           0           2           1           1           1           1           1           2           0           0
 AtZEff=  -0.0000000  -0.0000000  -0.0000000  -0.0000000  -0.0000000  -0.0000000  -0.0000000  -0.0000000  -0.0000000  -0.0000000
 NQMom=    0.0000000   2.0440000   0.0000000   0.0000000   0.0000000   0.0000000   0.0000000   2.0440000   0.0000000   0.0000000
 NMagM=    0.0000000   0.4037610   2.7928460   2.7928460   2.7928460   2.7928460   2.7928460   0.4037610   0.0000000   0.0000000
 AtZNuc=   6.0000000   7.0000000   1.0000000   1.0000000   1.0000000   1.0000000   1.0000000   7.0000000   6.0000000   6.0000000

  Atom        61          62          63          64          65          66          67          68          69          70
 IAtWgt=          14           1          12          14           1          12          14          12          12          14
 AtmWgt=  14.0030740   1.0078250  12.0000000  14.0030740   1.0078250  12.0000000  14.0030740  12.0000000  12.0000000  14.0030740
 NucSpn=           2           1           0           2           1           0           2           0           0           2
 AtZEff=  -0.0000000  -0.0000000  -0.0000000  -0.0000000  -0.0000000  -0.0000000  -0.0000000  -0.0000000  -0.0000000  -0.0000000
 NQMom=    2.0440000   0.0000000   0.0000000   2.0440000   0.0000000   0.0000000   2.0440000   0.0000000   0.0000000   2.0440000
 NMagM=    0.4037610   2.7928460   0.0000000   0.4037610   2.7928460   0.0000000   0.4037610   0.0000000   0.0000000   0.4037610
 AtZNuc=   7.0000000   1.0000000   6.0000000   7.0000000   1.0000000   6.0000000   7.0000000   6.0000000   6.0000000   7.0000000
 Leave Link  101 at Sun Jan 21 01:30:34 2018, MaxMem=  4294967296 cpu:               6.8 elap:               0.2
 (Enter /share/apps/g16/l202.exe)
 Stoichiometry    C23H27N17O3
 Framework group  C1[X(C23H27N17O3)]
 Deg. of freedom   204
 Full point group                 C1      NOp   1
 Largest Abelian subgroup         C1      NOp   1
 Largest concise Abelian subgroup C1      NOp   1
                         Standard orientation:                         
 ---------------------------------------------------------------------
 Center     Atomic      Atomic             Coordinates (Angstroms)
 Number     Number       Type             X           Y           Z
 ---------------------------------------------------------------------
      1          7           0        4.570655   -1.303313   -1.804796
      2          6           0        5.905025   -0.725198   -2.056248
      3          6           0        2.401734   -1.563559   -1.549071
      4          7           0        2.971495   -2.807722   -1.320690
      5          6           0        4.255380   -2.601141   -1.483898
      6          1           0        5.024575   -3.367153   -1.381321
      7          7           0        0.842857    0.188277   -1.801862
      8          6           0        1.887835    0.976554   -2.074340
      9          1           0        1.643061    2.016475   -2.286265
     10          7           0        3.183669    0.674513   -2.124106
     11          6           0        3.374987   -0.626217   -1.848592
     12          6           0        1.068441   -1.115416   -1.528802
     13          7           0        0.026622   -1.903877   -1.256570
     14          1           0        0.146775   -2.875268   -1.048749
     15          1           0       -0.908989   -1.550682   -1.251063
     16          1           0        6.332629   -1.194022   -2.829265
     17          1           0        5.813335    0.247587   -2.266966
     18          1           0        6.477119   -0.836002   -1.243584
     19          7           0        5.442032    1.351208    0.846556
     20          6           0        4.074345    1.461552    0.919412
     21          6           0        6.366973    2.437194    0.464680
     22          7           0        1.188895    3.366775    0.593824
     23          1           0        0.203855    3.238677    0.705781
     24          1           0        1.499030    4.274509    0.309993
     25          7           0        3.351459    2.571662    0.656490
     26          6           0        2.055774    2.366840    0.814172
     27          7           0        1.507900    1.167394    1.199766
     28          1           0        0.506071    1.102243    1.294963
     29          6           0        2.232540    0.012087    1.475502
     30          8           0        1.640556   -1.019477    1.816352
     31          6           0        3.626028    0.216599    1.310442
     32          7           0        4.690823   -0.657731    1.479668
     33          6           0        5.745025    0.057378    1.194201
     34          1           0        6.771145   -0.310881    1.221346
     35          1           0        6.881657    2.168306   -0.348714
     36          1           0        5.842826    3.264648    0.267582
     37          1           0        7.001182    2.616700    1.215924
     38          1           0       -4.565390    1.252374    0.962704
     39          1           0       -4.466092    1.461657    2.709412
     40          1           0       -3.187002    2.093770    1.672250
     41          1           0       -3.720352   -3.277371    2.346130
     42          6           0       -3.176784   -2.343373    2.203312
     43          8           0       -1.039648   -3.372810    2.205168
     44          6           0       -1.748137   -2.369588    2.125237
     45          1           0       -0.151479   -1.112317    1.883829
     46          7           0       -1.159765   -1.134212    1.943778
     47          8           0       -1.186807    1.120626    1.675145
     48          6           0       -1.795470    0.077202    1.834759
     49          1           0       -4.910445   -1.103322    2.153285
     50          6           0       -3.825049   -1.177275    2.100446
     51          6           0       -3.895488    1.290322    1.808788
     52          7           0       -3.172692    0.020299    1.919875
     53          1           0       -6.332100    3.522982   -2.088210
     54          1           0       -4.957896    3.654960   -1.218587
     55          1           0       -6.399854    3.572059   -0.458358
     56          1           0       -3.400339   -3.197374   -0.944923
     57          1           0       -5.082514   -2.924711   -1.022521
     58          7           0       -4.156962   -2.545414   -0.996009
     59          6           0       -3.942342   -1.228560   -1.027446
     60          6           0       -4.591106    1.058692   -1.124096
     61          7           0       -3.337417    1.539650   -1.087179
     62          1           0       -1.411331    0.846303   -0.986671
     63          6           0       -2.456886    0.543097   -1.020452
     64          7           0       -2.669864   -0.776464   -0.988875
     65          1           0       -7.819970    1.149045   -1.259808
     66          6           0       -6.772446    0.850871   -1.207558
     67          7           0       -6.352538   -0.389413   -1.152338
     68          6           0       -4.971212   -0.271881   -1.099057
     69          6           0       -5.871300    3.249762   -1.243810
     70          7           0       -5.759956    1.779001   -1.194246
 ---------------------------------------------------------------------
 Rotational constants (GHZ):           0.1644381           0.0514839           0.0495774
 Leave Link  202 at Sun Jan 21 01:30:34 2018, MaxMem=  4294967296 cpu:               0.3 elap:               0.0
 (Enter /share/apps/g16/l301.exe)
 Standard basis: CC-pVDZ (5D, 7F)
 Ernie: Thresh=  0.10000D-02 Tol=  0.10000D-05 Strict=F.
 Ernie:  86 primitive shells out of 1081 were deleted.
 There are   780 symmetry adapted cartesian basis functions of A   symmetry.
 There are   737 symmetry adapted basis functions of A   symmetry.
   737 basis functions,  1608 primitive gaussians,   780 cartesian basis functions
   154 alpha electrons      154 beta electrons
       nuclear repulsion energy      5548.5335453017 Hartrees.
 IExCor= 4639 DFT=T Ex+Corr=wB97XD ExCW=0 ScaHFX=  1.000000
 ScaDFX=  1.000000  1.000000  1.000000  1.000000 ScalE2=  1.000000  1.000000
 IRadAn=      5 IRanWt=     -1 IRanGd=            0 ICorTp=0 IEmpDi=121
 HFx  wShort=  0.000000 wLong=  0.200000 cFull=  0.222036 cShort=  0.000000 cLong=  0.777964
 DFx  wShort=  0.000000 wLong=  0.200000 cFull=  0.000000 cShort=  0.000000 cLong=  1.000000
 NAtoms=   70 NActive=   70 NUniq=   70 SFac= 1.00D+00 NAtFMM=   60 NAOKFM=T Big=T
 Integral buffers will be    131072 words long.
 Raffenetti 2 integral format.
 Two-electron integral symmetry is turned on.
 R6Disp:  Grimme-D2 Dispersion energy=       -0.0760360069 Hartrees.
 Nuclear repulsion after empirical dispersion term =     5548.4575092948 Hartrees.
 Leave Link  301 at Sun Jan 21 01:30:35 2018, MaxMem=  4294967296 cpu:               2.1 elap:               0.1
 (Enter /share/apps/g16/l302.exe)
 NPDir=0 NMtPBC=     1 NCelOv=     1 NCel=       1 NClECP=     1 NCelD=      1
         NCelK=      1 NCelE2=     1 NClLst=     1 CellRange=     0.0.
 One-electron integrals computed using PRISM.
 One-electron integral symmetry used in STVInt
 NBasis=   737 RedAO= T EigKep=  6.62D-04  NBF=   737
 NBsUse=   737 1.00D-06 EigRej= -1.00D+00 NBFU=   737
 Precomputing XC quadrature grid using
 IXCGrd= 4 IRadAn=           5 IRanWt=          -1 IRanGd=           0 AccXCQ= 0.00D+00.
 Generated NRdTot=       0 NPtTot=           0 NUsed=           0 NTot=          32
 NSgBfM=   762   758   758   762   762 MxSgAt=    70 MxSgA2=    70.
 Leave Link  302 at Sun Jan 21 01:30:39 2018, MaxMem=  4294967296 cpu:             133.3 elap:               4.2
 (Enter /share/apps/g16/l303.exe)
 DipDrv:  MaxL=1.
 Leave Link  303 at Sun Jan 21 01:30:39 2018, MaxMem=  4294967296 cpu:              12.9 elap:               0.5
 (Enter /share/apps/g16/l401.exe)
 ExpMin= 1.22D-01 ExpMax= 1.17D+04 ExpMxC= 4.01D+02 IAcc=3 IRadAn=         5 AccDes= 0.00D+00
 Harris functional with IExCor= 4639 and IRadAn=       5 diagonalized for initial guess.
 HarFok:  IExCor= 4639 AccDes= 0.00D+00 IRadAn=         5 IDoV= 1 UseB2=F ITyADJ=14
 ICtDFT=  3500011 ScaDFX=  1.000000  1.000000  1.000000  1.000000
 FoFCou: FMM=F IPFlag=           0 FMFlag=      100000 FMFlg1=        2001
         NFxFlg=           0 DoJE=T BraDBF=F KetDBF=T FulRan=T
         wScrn=  0.000000 ICntrl=       500 IOpCl=  0 I1Cent=   200000004 NGrid=           0
         NMat0=    1 NMatS0=      1 NMatT0=    0 NMatD0=    1 NMtDS0=    0 NMtDT0=    0
 Petite list used in FoFCou.
 Harris En= -1963.88086861123    
 JPrj=0 DoOrth=F DoCkMO=F.
 Leave Link  401 at Sun Jan 21 01:30:52 2018, MaxMem=  4294967296 cpu:             404.9 elap:              12.8
 (Enter /share/apps/g16/l502.exe)
 Integral symmetry usage will be decided dynamically.
 Closed shell SCF:
 Using DIIS extrapolation, IDIIS=  1040.
 NGot=  4294967296 LenX=  4293717438 LenY=  4293108258
 Requested convergence on RMS density matrix=1.00D-08 within  20 cycles.
 Requested convergence on MAX density matrix=1.00D-06.
 Requested convergence on             energy=1.00D-06.
 No special actions if energy rises.
 Fock matrices will be formed incrementally for  20 cycles.
 Integral accuracy reduced to 1.0D-05 until final iterations.

 Cycle   1  Pass 0  IDiag  1:
 FoFJK:  IHMeth= 1 ICntrl=       0 DoSepK=T KAlg= 0 I1Cent=           0 FoldK=F
 IRaf=         1 NMat=       1 IRICut=       1 DoRegI=T DoRafI=F ISym2E= 0 IDoP0=0 IntGTp=1.
 FoFCou: FMM=T IPFlag=           0 FMFlag=      100000 FMFlg1=        2001
         NFxFlg=           0 DoJE=T BraDBF=F KetDBF=F FulRan=T
         wScrn=  0.000000 ICntrl=       500 IOpCl=  0 I1Cent=           0 NGrid=           0
         NMat0=    1 NMatS0=      1 NMatT0=    0 NMatD0=    1 NMtDS0=    0 NMtDT0=    0
 Symmetry not used in FoFCou.
 FMM levels:  10  Number of levels for PrismC:   9
 E= -2048.31520897181    
 DIIS: error= 2.18D-02 at cycle   1 NSaved=   1.
 NSaved= 1 IEnMin= 1 EnMin= -2048.31520897181     IErMin= 1 ErrMin= 2.18D-02
 ErrMax= 2.18D-02  0.00D+00 EMaxC= 1.00D-01 BMatC= 8.31D-01 BMatP= 8.31D-01
 IDIUse=3 WtCom= 7.82D-01 WtEn= 2.18D-01
 Coeff-Com:  0.100D+01
 Coeff-En:   0.100D+01
 Coeff:      0.100D+01
 Gap=     0.264 Goal=   None    Shift=    0.000
 GapD=    0.264 DampG=1.000 DampE=0.500 DampFc=0.5000 IDamp=-1.
 Damping current iteration by 5.00D-01
 RMSDP=1.57D-03 MaxDP=1.30D-01              OVMax= 2.07D-01

 Cycle   2  Pass 0  IDiag  1:
 RMSU=  7.83D-04    CP:  9.98D-01
 E= -2048.51240502321     Delta-E=       -0.197196051405 Rises=F Damp=T
 DIIS: error= 1.21D-02 at cycle   2 NSaved=   2.
 NSaved= 2 IEnMin= 2 EnMin= -2048.51240502321     IErMin= 2 ErrMin= 1.21D-02
 ErrMax= 1.21D-02  0.00D+00 EMaxC= 1.00D-01 BMatC= 1.44D-01 BMatP= 8.31D-01
 IDIUse=3 WtCom= 8.79D-01 WtEn= 1.21D-01
 Coeff-Com: -0.203D+00 0.120D+01
 Coeff-En:   0.000D+00 0.100D+01
 Coeff:     -0.178D+00 0.118D+01
 Gap=     0.294 Goal=   None    Shift=    0.000
 RMSDP=5.88D-04 MaxDP=3.55D-02 DE=-1.97D-01 OVMax= 1.53D-01

 Cycle   3  Pass 0  IDiag  1:
 RMSU=  5.73D-04    CP:  9.94D-01  1.15D+00
 E= -2048.69085734479     Delta-E=       -0.178452321576 Rises=F Damp=F
 DIIS: error= 5.94D-03 at cycle   3 NSaved=   3.
 NSaved= 3 IEnMin= 3 EnMin= -2048.69085734479     IErMin= 3 ErrMin= 5.94D-03
 ErrMax= 5.94D-03  0.00D+00 EMaxC= 1.00D-01 BMatC= 6.26D-02 BMatP= 1.44D-01
 IDIUse=3 WtCom= 9.41D-01 WtEn= 5.94D-02
 Coeff-Com: -0.233D+00 0.552D+00 0.681D+00
 Coeff-En:   0.000D+00 0.000D+00 0.100D+01
 Coeff:     -0.219D+00 0.519D+00 0.700D+00
 Gap=     0.281 Goal=   None    Shift=    0.000
 RMSDP=3.52D-04 MaxDP=3.39D-02 DE=-1.78D-01 OVMax= 6.98D-02

 Cycle   4  Pass 0  IDiag  1:
 RMSU=  2.02D-04    CP:  9.94D-01  1.43D+00  6.72D-01
 E= -2048.73816059862     Delta-E=       -0.047303253832 Rises=F Damp=F
 DIIS: error= 2.04D-03 at cycle   4 NSaved=   4.
 NSaved= 4 IEnMin= 4 EnMin= -2048.73816059862     IErMin= 4 ErrMin= 2.04D-03
 ErrMax= 2.04D-03  0.00D+00 EMaxC= 1.00D-01 BMatC= 8.56D-03 BMatP= 6.26D-02
 IDIUse=3 WtCom= 9.80D-01 WtEn= 2.04D-02
 Coeff-Com: -0.979D-01 0.190D+00 0.373D+00 0.535D+00
 Coeff-En:   0.000D+00 0.000D+00 0.482D-01 0.952D+00
 Coeff:     -0.959D-01 0.186D+00 0.367D+00 0.544D+00
 Gap=     0.283 Goal=   None    Shift=    0.000
 RMSDP=1.22D-04 MaxDP=1.15D-02 DE=-4.73D-02 OVMax= 1.27D-02

 Cycle   5  Pass 0  IDiag  1:
 RMSU=  6.16D-05    CP:  9.94D-01  1.41D+00  7.99D-01  6.31D-01
 E= -2048.74512970065     Delta-E=       -0.006969102031 Rises=F Damp=F
 DIIS: error= 5.43D-04 at cycle   5 NSaved=   5.
 NSaved= 5 IEnMin= 5 EnMin= -2048.74512970065     IErMin= 5 ErrMin= 5.43D-04
 ErrMax= 5.43D-04  0.00D+00 EMaxC= 1.00D-01 BMatC= 2.80D-04 BMatP= 8.56D-03
 IDIUse=3 WtCom= 9.95D-01 WtEn= 5.43D-03
 Coeff-Com: -0.259D-01 0.447D-01 0.121D+00 0.238D+00 0.622D+00
 Coeff-En:   0.000D+00 0.000D+00 0.000D+00 0.000D+00 0.100D+01
 Coeff:     -0.257D-01 0.445D-01 0.120D+00 0.237D+00 0.624D+00
 Gap=     0.283 Goal=   None    Shift=    0.000
 RMSDP=2.55D-05 MaxDP=1.95D-03 DE=-6.97D-03 OVMax= 3.10D-03

 Failed to achieve initial convergence to 1.0D-08 in  6 cycles.
 Switch to full accuracy anyway.
 Cycle   6  Pass 1  IDiag  1:
 E= -2048.74531703554     Delta-E=       -0.000187334890 Rises=F Damp=F
 DIIS: error= 2.51D-04 at cycle   1 NSaved=   1.
 NSaved= 1 IEnMin= 1 EnMin= -2048.74531703554     IErMin= 1 ErrMin= 2.51D-04
 ErrMax= 2.51D-04  0.00D+00 EMaxC= 1.00D-01 BMatC= 7.74D-05 BMatP= 7.74D-05
 IDIUse=3 WtCom= 9.97D-01 WtEn= 2.51D-03
 Coeff-Com:  0.100D+01
 Coeff-En:   0.100D+01
 Coeff:      0.100D+01
 Gap=     0.283 Goal=   None    Shift=    0.000
 RMSDP=2.55D-05 MaxDP=1.95D-03 DE=-1.87D-04 OVMax= 2.55D-03

 Cycle   7  Pass 1  IDiag  1:
 RMSU=  1.20D-04    CP:  1.00D+00
 E= -2048.74537298873     Delta-E=       -0.000055953189 Rises=F Damp=F
 DIIS: error= 2.27D-04 at cycle   2 NSaved=   2.
 NSaved= 2 IEnMin= 2 EnMin= -2048.74537298873     IErMin= 2 ErrMin= 2.27D-04
 ErrMax= 2.27D-04  0.00D+00 EMaxC= 1.00D-01 BMatC= 4.60D-05 BMatP= 7.74D-05
 IDIUse=3 WtCom= 9.98D-01 WtEn= 2.27D-03
 Coeff-Com:  0.412D+00 0.588D+00
 Coeff-En:   0.000D+00 0.100D+01
 Coeff:      0.411D+00 0.589D+00
 Gap=     0.283 Goal=   None    Shift=    0.000
 RMSDP=1.16D-05 MaxDP=1.19D-03 DE=-5.60D-05 OVMax= 1.32D-03

 Cycle   8  Pass 1  IDiag  1:
 RMSU=  1.12D-05    CP:  1.00D+00  1.02D+00
 E= -2048.74540542732     Delta-E=       -0.000032438592 Rises=F Damp=F
 DIIS: error= 8.58D-05 at cycle   3 NSaved=   3.
 NSaved= 3 IEnMin= 3 EnMin= -2048.74540542732     IErMin= 3 ErrMin= 8.58D-05
 ErrMax= 8.58D-05  0.00D+00 EMaxC= 1.00D-01 BMatC= 1.07D-05 BMatP= 4.60D-05
 IDIUse=1 WtCom= 1.00D+00 WtEn= 0.00D+00
 Coeff-Com: -0.195D-01 0.313D+00 0.706D+00
 Coeff:     -0.195D-01 0.313D+00 0.706D+00
 Gap=     0.283 Goal=   None    Shift=    0.000
 RMSDP=5.79D-06 MaxDP=4.95D-04 DE=-3.24D-05 OVMax= 5.69D-04

 Cycle   9  Pass 1  IDiag  1:
 RMSU=  3.86D-06    CP:  1.00D+00  1.05D+00  7.58D-01
 E= -2048.74541523620     Delta-E=       -0.000009808873 Rises=F Damp=F
 DIIS: error= 3.08D-05 at cycle   4 NSaved=   4.
 NSaved= 4 IEnMin= 4 EnMin= -2048.74541523620     IErMin= 4 ErrMin= 3.08D-05
 ErrMax= 3.08D-05  0.00D+00 EMaxC= 1.00D-01 BMatC= 4.89D-07 BMatP= 1.07D-05
 IDIUse=1 WtCom= 1.00D+00 WtEn= 0.00D+00
 Coeff-Com: -0.301D-01 0.859D-01 0.257D+00 0.687D+00
 Coeff:     -0.301D-01 0.859D-01 0.257D+00 0.687D+00
 Gap=     0.283 Goal=   None    Shift=    0.000
 RMSDP=1.43D-06 MaxDP=1.31D-04 DE=-9.81D-06 OVMax= 4.91D-04

 Cycle  10  Pass 1  IDiag  1:
 RMSU=  1.27D-06    CP:  1.00D+00  1.05D+00  7.90D-01  1.11D+00
 E= -2048.74541606060     Delta-E=       -0.000000824403 Rises=F Damp=F
 DIIS: error= 1.08D-05 at cycle   5 NSaved=   5.
 NSaved= 5 IEnMin= 5 EnMin= -2048.74541606060     IErMin= 5 ErrMin= 1.08D-05
 ErrMax= 1.08D-05  0.00D+00 EMaxC= 1.00D-01 BMatC= 1.13D-07 BMatP= 4.89D-07
 IDIUse=1 WtCom= 1.00D+00 WtEn= 0.00D+00
 Coeff-Com: -0.233D-02-0.568D-01-0.124D+00 0.190D+00 0.993D+00
 Coeff:     -0.233D-02-0.568D-01-0.124D+00 0.190D+00 0.993D+00
 Gap=     0.283 Goal=   None    Shift=    0.000
 RMSDP=1.22D-06 MaxDP=7.99D-05 DE=-8.24D-07 OVMax= 2.64D-04

 Cycle  11  Pass 1  IDiag  1:
 RMSU=  5.03D-07    CP:  1.00D+00  1.06D+00  7.99D-01  1.39D+00  1.18D+00
 E= -2048.74541631393     Delta-E=       -0.000000253328 Rises=F Damp=F
 DIIS: error= 7.49D-06 at cycle   6 NSaved=   6.
 NSaved= 6 IEnMin= 6 EnMin= -2048.74541631393     IErMin= 6 ErrMin= 7.49D-06
 ErrMax= 7.49D-06  0.00D+00 EMaxC= 1.00D-01 BMatC= 2.98D-08 BMatP= 1.13D-07
 IDIUse=1 WtCom= 1.00D+00 WtEn= 0.00D+00
 Coeff-Com:  0.470D-02-0.456D-01-0.115D+00-0.689D-02 0.541D+00 0.621D+00
 Coeff:      0.470D-02-0.456D-01-0.115D+00-0.689D-02 0.541D+00 0.621D+00
 Gap=     0.283 Goal=   None    Shift=    0.000
 RMSDP=3.64D-07 MaxDP=3.64D-05 DE=-2.53D-07 OVMax= 1.28D-04

 Cycle  12  Pass 1  IDiag  1:
 RMSU=  1.86D-07    CP:  1.00D+00  1.05D+00  8.00D-01  1.46D+00  1.31D+00
                    CP:  9.16D-01
 E= -2048.74541635537     Delta-E=       -0.000000041444 Rises=F Damp=F
 DIIS: error= 1.05D-06 at cycle   7 NSaved=   7.
 NSaved= 7 IEnMin= 7 EnMin= -2048.74541635537     IErMin= 7 ErrMin= 1.05D-06
 ErrMax= 1.05D-06  0.00D+00 EMaxC= 1.00D-01 BMatC= 7.84D-10 BMatP= 2.98D-08
 IDIUse=1 WtCom= 1.00D+00 WtEn= 0.00D+00
 Coeff-Com:  0.101D-02-0.638D-02-0.177D-01-0.867D-02 0.482D-01 0.125D+00
 Coeff-Com:  0.859D+00
 Coeff:      0.101D-02-0.638D-02-0.177D-01-0.867D-02 0.482D-01 0.125D+00
 Coeff:      0.859D+00
 Gap=     0.283 Goal=   None    Shift=    0.000
 RMSDP=8.71D-08 MaxDP=5.60D-06 DE=-4.14D-08 OVMax= 2.35D-05

 Cycle  13  Pass 1  IDiag  1:
 RMSU=  5.16D-08    CP:  1.00D+00  1.05D+00  8.00D-01  1.47D+00  1.34D+00
                    CP:  1.01D+00  1.14D+00
 E= -2048.74541635737     Delta-E=       -0.000000002001 Rises=F Damp=F
 DIIS: error= 5.77D-07 at cycle   8 NSaved=   8.
 NSaved= 8 IEnMin= 8 EnMin= -2048.74541635737     IErMin= 8 ErrMin= 5.77D-07
 ErrMax= 5.77D-07  0.00D+00 EMaxC= 1.00D-01 BMatC= 3.14D-10 BMatP= 7.84D-10
 IDIUse=1 WtCom= 1.00D+00 WtEn= 0.00D+00
 Coeff-Com: -0.739D-03 0.895D-02 0.214D-01-0.771D-03-0.119D+00-0.976D-01
 Coeff-Com:  0.428D+00 0.760D+00
 Coeff:     -0.739D-03 0.895D-02 0.214D-01-0.771D-03-0.119D+00-0.976D-01
 Coeff:      0.428D+00 0.760D+00
 Gap=     0.283 Goal=   None    Shift=    0.000
 RMSDP=4.66D-08 MaxDP=2.85D-06 DE=-2.00D-09 OVMax= 1.16D-05

 Cycle  14  Pass 1  IDiag  1:
 RMSU=  2.77D-08    CP:  1.00D+00  1.05D+00  8.00D-01  1.47D+00  1.34D+00
                    CP:  1.05D+00  1.28D+00  1.09D+00
 E= -2048.74541635765     Delta-E=       -0.000000000273 Rises=F Damp=F
 DIIS: error= 1.70D-07 at cycle   9 NSaved=   9.
 NSaved= 9 IEnMin= 9 EnMin= -2048.74541635765     IErMin= 9 ErrMin= 1.70D-07
 ErrMax= 1.70D-07  0.00D+00 EMaxC= 1.00D-01 BMatC= 3.03D-11 BMatP= 3.14D-10
 IDIUse=1 WtCom= 1.00D+00 WtEn= 0.00D+00
 Coeff-Com: -0.422D-03 0.449D-02 0.110D-01 0.828D-03-0.547D-01-0.547D-01
 Coeff-Com:  0.858D-01 0.303D+00 0.705D+00
 Coeff:     -0.422D-03 0.449D-02 0.110D-01 0.828D-03-0.547D-01-0.547D-01
 Coeff:      0.858D-01 0.303D+00 0.705D+00
 Gap=     0.283 Goal=   None    Shift=    0.000
 RMSDP=1.35D-08 MaxDP=8.05D-07 DE=-2.73D-10 OVMax= 3.30D-06

 Cycle  15  Pass 1  IDiag  1:
 RMSU=  9.03D-09    CP:  1.00D+00  1.05D+00  8.00D-01  1.47D+00  1.34D+00
                    CP:  1.06D+00  1.31D+00  1.23D+00  1.11D+00
 E= -2048.74541635785     Delta-E=       -0.000000000208 Rises=F Damp=F
 DIIS: error= 7.51D-08 at cycle  10 NSaved=  10.
 NSaved=10 IEnMin=10 EnMin= -2048.74541635785     IErMin=10 ErrMin= 7.51D-08
 ErrMax= 7.51D-08  0.00D+00 EMaxC= 1.00D-01 BMatC= 5.67D-12 BMatP= 3.03D-11
 IDIUse=1 WtCom= 1.00D+00 WtEn= 0.00D+00
 Coeff-Com:  0.643D-05-0.317D-03-0.637D-03 0.180D-03 0.562D-02 0.114D-02
 Coeff-Com: -0.566D-01-0.568D-01 0.281D+00 0.827D+00
 Coeff:      0.643D-05-0.317D-03-0.637D-03 0.180D-03 0.562D-02 0.114D-02
 Coeff:     -0.566D-01-0.568D-01 0.281D+00 0.827D+00
 Gap=     0.283 Goal=   None    Shift=    0.000
 RMSDP=6.82D-09 MaxDP=4.09D-07 DE=-2.08D-10 OVMax= 1.48D-06

 SCF Done:  E(RwB97XD) =  -2048.74541636     A.U. after   15 cycles
            NFock= 15  Conv=0.68D-08     -V/T= 2.0054
 KE= 2.037790996333D+03 PE=-1.587727290091D+04 EE= 6.242278978928D+03
 Leave Link  502 at Sun Jan 21 01:42:28 2018, MaxMem=  4294967296 cpu:           21513.2 elap:             695.9
 (Enter /share/apps/g16/l601.exe)
 Copying SCF densities to generalized density rwf, IOpCl= 0 IROHF=0.

 **********************************************************************

            Population analysis using the SCF density.

 **********************************************************************

 Orbital symmetries:
       Occupied  (A) (A) (A) (A) (A) (A) (A) (A) (A) (A) (A) (A)
                 (A) (A) (A) (A) (A) (A) (A) (A) (A) (A) (A) (A)
                 (A) (A) (A) (A) (A) (A) (A) (A) (A) (A) (A) (A)
                 (A) (A) (A) (A) (A) (A) (A) (A) (A) (A) (A) (A)
                 (A) (A) (A) (A) (A) (A) (A) (A) (A) (A) (A) (A)
                 (A) (A) (A) (A) (A) (A) (A) (A) (A) (A) (A) (A)
                 (A) (A) (A) (A) (A) (A) (A) (A) (A) (A) (A) (A)
                 (A) (A) (A) (A) (A) (A) (A) (A) (A) (A) (A) (A)
                 (A) (A) (A) (A) (A) (A) (A) (A) (A) (A) (A) (A)
                 (A) (A) (A) (A) (A) (A) (A) (A) (A) (A) (A) (A)
                 (A) (A) (A) (A) (A) (A) (A) (A) (A) (A) (A) (A)
                 (A) (A) (A) (A) (A) (A) (A) (A) (A) (A) (A) (A)
                 (A) (A) (A) (A) (A) (A) (A) (A) (A) (A)
       Virtual   (A) (A) (A) (A) (A) (A) (A) (A) (A) (A) (A) (A)
                 (A) (A) (A) (A) (A) (A) (A) (A) (A) (A) (A) (A)
                 (A) (A) (A) (A) (A) (A) (A) (A) (A) (A) (A) (A)
                 (A) (A) (A) (A) (A) (A) (A) (A) (A) (A) (A) (A)
                 (A) (A) (A) (A) (A) (A) (A) (A) (A) (A) (A) (A)
                 (A) (A) (A) (A) (A) (A) (A) (A) (A) (A) (A) (A)
                 (A) (A) (A) (A) (A) (A) (A) (A) (A) (A) (A) (A)
                 (A) (A) (A) (A) (A) (A) (A) (A) (A) (A) (A) (A)
                 (A) (A) (A) (A) (A) (A) (A) (A) (A) (A) (A) (A)
                 (A) (A) (A) (A) (A) (A) (A) (A) (A) (A) (A) (A)
                 (A) (A) (A) (A) (A) (A) (A) (A) (A) (A) (A) (A)
                 (A) (A) (A) (A) (A) (A) (A) (A) (A) (A) (A) (A)
                 (A) (A) (A) (A) (A) (A) (A) (A) (A) (A) (A) (A)
                 (A) (A) (A) (A) (A) (A) (A) (A) (A) (A) (A) (A)
                 (A) (A) (A) (A) (A) (A) (A) (A) (A) (A) (A) (A)
                 (A) (A) (A) (A) (A) (A) (A) (A) (A) (A) (A) (A)
                 (A) (A) (A) (A) (A) (A) (A) (A) (A) (A) (A) (A)
                 (A) (A) (A) (A) (A) (A) (A) (A) (A) (A) (A) (A)
                 (A) (A) (A) (A) (A) (A) (A) (A) (A) (A) (A) (A)
                 (A) (A) (A) (A) (A) (A) (A) (A) (A) (A) (A) (A)
                 (A) (A) (A) (A) (A) (A) (A) (A) (A) (A) (A) (A)
                 (A) (A) (A) (A) (A) (A) (A) (A) (A) (A) (A) (A)
                 (A) (A) (A) (A) (A) (A) (A) (A) (A) (A) (A) (A)
                 (A) (A) (A) (A) (A) (A) (A) (A) (A) (A) (A) (A)
                 (A) (A) (A) (A) (A) (A) (A) (A) (A) (A) (A) (A)
                 (A) (A) (A) (A) (A) (A) (A) (A) (A) (A) (A) (A)
                 (A) (A) (A) (A) (A) (A) (A) (A) (A) (A) (A) (A)
                 (A) (A) (A) (A) (A) (A) (A) (A) (A) (A) (A) (A)
                 (A) (A) (A) (A) (A) (A) (A) (A) (A) (A) (A) (A)
                 (A) (A) (A) (A) (A) (A) (A) (A) (A) (A) (A) (A)
                 (A) (A) (A) (A) (A) (A) (A) (A) (A) (A) (A) (A)
                 (A) (A) (A) (A) (A) (A) (A) (A) (A) (A) (A) (A)
                 (A) (A) (A) (A) (A) (A) (A) (A) (A) (A) (A) (A)
                 (A) (A) (A) (A) (A) (A) (A) (A) (A) (A) (A) (A)
                 (A) (A) (A) (A) (A) (A) (A) (A) (A) (A) (A) (A)
                 (A) (A) (A) (A) (A) (A) (A) (A) (A) (A) (A) (A)
                 (A) (A) (A) (A) (A) (A) (A) (A) (A) (A) (A) (A)
                 (A) (A) (A) (A) (A) (A) (A) (A) (A) (A) (A) (A)
                 (A) (A) (A) (A) (A) (A) (A) (A) (A) (A) (A) (A)
                 (A) (A) (A) (A) (A) (A) (A) (A) (A) (A) (A) (A)
                 (A) (A) (A) (A) (A) (A) (A) (A) (A) (A) (A) (A)
                 (A) (A) (A) (A) (A) (A) (A) (A) (A) (A) (A) (A)
                 (A) (A) (A) (A) (A) (A) (A) (A) (A) (A) (A) (A)
                 (A) (A) (A) (A) (A) (A) (A) (A) (A) (A) (A) (A)
                 (A) (A) (A) (A) (A) (A) (A) (A) (A) (A) (A) (A)
                 (A) (A) (A) (A) (A) (A) (A) (A) (A) (A) (A) (A)
                 (A) (A) (A) (A) (A) (A) (A) (A) (A) (A) (A) (A)
                 (A) (A) (A) (A) (A) (A) (A) (A) (A) (A) (A) (A)
                 (A) (A) (A) (A) (A) (A) (A)
 The electronic state is 1-A.
 Alpha  occ. eigenvalues --  -19.25187 -19.21416 -19.20611 -14.52905 -14.51640
 Alpha  occ. eigenvalues --  -14.49243 -14.48562 -14.48537 -14.47181 -14.46745
 Alpha  occ. eigenvalues --  -14.46657 -14.45757 -14.44775 -14.44741 -14.42887
 Alpha  occ. eigenvalues --  -14.41941 -14.41486 -14.41252 -14.41089 -14.40769
 Alpha  occ. eigenvalues --  -10.44771 -10.41179 -10.40444 -10.39507 -10.38314
 Alpha  occ. eigenvalues --  -10.38275 -10.37630 -10.37063 -10.36300 -10.35849
 Alpha  occ. eigenvalues --  -10.34582 -10.34211 -10.33882 -10.33877 -10.33873
 Alpha  occ. eigenvalues --  -10.33434 -10.33401 -10.33169 -10.31381 -10.30922
 Alpha  occ. eigenvalues --  -10.30417 -10.28628 -10.28362  -1.18775  -1.15684
 Alpha  occ. eigenvalues --   -1.13264  -1.12422  -1.11200  -1.10896  -1.09820
 Alpha  occ. eigenvalues --   -1.08620  -1.08481  -1.05426  -1.05297  -1.01791
 Alpha  occ. eigenvalues --   -1.01342  -1.00827  -0.99720  -0.98637  -0.97405
 Alpha  occ. eigenvalues --   -0.96919  -0.96848  -0.93119  -0.90319  -0.88116
 Alpha  occ. eigenvalues --   -0.86268  -0.84467  -0.83937  -0.82918  -0.82701
 Alpha  occ. eigenvalues --   -0.82367  -0.78195  -0.77450  -0.75319  -0.74842
 Alpha  occ. eigenvalues --   -0.73660  -0.73075  -0.72672  -0.71279  -0.70830
 Alpha  occ. eigenvalues --   -0.67485  -0.67209  -0.66488  -0.65903  -0.64646
 Alpha  occ. eigenvalues --   -0.64454  -0.63435  -0.62954  -0.62648  -0.61890
 Alpha  occ. eigenvalues --   -0.61239  -0.60873  -0.60678  -0.59846  -0.58952
 Alpha  occ. eigenvalues --   -0.58813  -0.58391  -0.57637  -0.56768  -0.55925
 Alpha  occ. eigenvalues --   -0.55819  -0.55628  -0.55594  -0.54628  -0.54158
 Alpha  occ. eigenvalues --   -0.53975  -0.53967  -0.53350  -0.53174  -0.53018
 Alpha  occ. eigenvalues --   -0.52384  -0.51802  -0.51579  -0.50632  -0.50538
 Alpha  occ. eigenvalues --   -0.50291  -0.50168  -0.49535  -0.49201  -0.49014
 Alpha  occ. eigenvalues --   -0.48733  -0.48188  -0.48143  -0.47734  -0.47098
 Alpha  occ. eigenvalues --   -0.47082  -0.45798  -0.45614  -0.45040  -0.42436
 Alpha  occ. eigenvalues --   -0.41415  -0.41091  -0.38914  -0.38220  -0.38000
 Alpha  occ. eigenvalues --   -0.37692  -0.37289  -0.36991  -0.35585  -0.35100
 Alpha  occ. eigenvalues --   -0.34704  -0.34188  -0.33644  -0.33521  -0.33027
 Alpha  occ. eigenvalues --   -0.32730  -0.32521  -0.31944  -0.31116  -0.30876
 Alpha  occ. eigenvalues --   -0.30671  -0.30534  -0.26299  -0.25437
 Alpha virt. eigenvalues --    0.02893   0.04349   0.06380   0.07518   0.08743
 Alpha virt. eigenvalues --    0.09084   0.09723   0.10099   0.10793   0.12407
 Alpha virt. eigenvalues --    0.13023   0.13788   0.14088   0.14471   0.14594
 Alpha virt. eigenvalues --    0.14978   0.16204   0.17430   0.17748   0.18183
 Alpha virt. eigenvalues --    0.18504   0.19146   0.19348   0.20417   0.20569
 Alpha virt. eigenvalues --    0.20747   0.21137   0.21283   0.21578   0.21790
 Alpha virt. eigenvalues --    0.22433   0.22521   0.23003   0.23159   0.23697
 Alpha virt. eigenvalues --    0.24140   0.24326   0.24654   0.25004   0.25767
 Alpha virt. eigenvalues --    0.26878   0.27085   0.27717   0.27843   0.27930
 Alpha virt. eigenvalues --    0.28596   0.28758   0.29790   0.30657   0.30957
 Alpha virt. eigenvalues --    0.31873   0.32002   0.32279   0.33194   0.33502
 Alpha virt. eigenvalues --    0.33954   0.34641   0.35082   0.36193   0.36567
 Alpha virt. eigenvalues --    0.36734   0.37263   0.37881   0.38316   0.38797
 Alpha virt. eigenvalues --    0.39077   0.39816   0.40650   0.40791   0.41485
 Alpha virt. eigenvalues --    0.42082   0.42431   0.42761   0.43920   0.44145
 Alpha virt. eigenvalues --    0.45662   0.45893   0.46185   0.46317   0.46662
 Alpha virt. eigenvalues --    0.46826   0.47339   0.47843   0.48518   0.48693
 Alpha virt. eigenvalues --    0.49170   0.49691   0.50603   0.51055   0.51451
 Alpha virt. eigenvalues --    0.51768   0.52349   0.52583   0.53230   0.53589
 Alpha virt. eigenvalues --    0.53889   0.54341   0.54722   0.54985   0.55484
 Alpha virt. eigenvalues --    0.55661   0.55828   0.56330   0.56811   0.57049
 Alpha virt. eigenvalues --    0.57554   0.57904   0.58515   0.58690   0.59349
 Alpha virt. eigenvalues --    0.60406   0.60536   0.60664   0.60800   0.61216
 Alpha virt. eigenvalues --    0.61522   0.62006   0.62497   0.62770   0.63064
 Alpha virt. eigenvalues --    0.63565   0.64575   0.64770   0.65287   0.65773
 Alpha virt. eigenvalues --    0.65856   0.66550   0.66672   0.67297   0.68102
 Alpha virt. eigenvalues --    0.68244   0.69003   0.69465   0.69694   0.70060
 Alpha virt. eigenvalues --    0.70885   0.71429   0.71669   0.72076   0.72448
 Alpha virt. eigenvalues --    0.72875   0.73691   0.73941   0.74141   0.74313
 Alpha virt. eigenvalues --    0.74692   0.74874   0.75266   0.75720   0.75896
 Alpha virt. eigenvalues --    0.76292   0.76686   0.77362   0.77460   0.78146
 Alpha virt. eigenvalues --    0.78571   0.78804   0.79012   0.79149   0.79397
 Alpha virt. eigenvalues --    0.79799   0.80393   0.80763   0.80952   0.81541
 Alpha virt. eigenvalues --    0.81761   0.82043   0.82251   0.83104   0.83290
 Alpha virt. eigenvalues --    0.84209   0.84802   0.84961   0.85164   0.85431
 Alpha virt. eigenvalues --    0.86209   0.86528   0.87091   0.87582   0.88005
 Alpha virt. eigenvalues --    0.88485   0.88729   0.88920   0.89394   0.89860
 Alpha virt. eigenvalues --    0.90763   0.91187   0.91341   0.92272   0.92542
 Alpha virt. eigenvalues --    0.93178   0.93815   0.94038   0.94292   0.94894
 Alpha virt. eigenvalues --    0.95486   0.95703   0.95807   0.96518   0.97246
 Alpha virt. eigenvalues --    0.97695   0.98010   0.98209   0.98234   0.99253
 Alpha virt. eigenvalues --    0.99598   1.00037   1.00626   1.01036   1.01400
 Alpha virt. eigenvalues --    1.01634   1.02063   1.02629   1.02706   1.03428
 Alpha virt. eigenvalues --    1.03862   1.04215   1.05186   1.05738   1.06300
 Alpha virt. eigenvalues --    1.06385   1.06638   1.07518   1.08171   1.08710
 Alpha virt. eigenvalues --    1.08831   1.09561   1.10566   1.10921   1.11425
 Alpha virt. eigenvalues --    1.12272   1.12628   1.12715   1.13092   1.13522
 Alpha virt. eigenvalues --    1.13916   1.14408   1.15006   1.15572   1.15858
 Alpha virt. eigenvalues --    1.15983   1.16521   1.16928   1.17496   1.18090
 Alpha virt. eigenvalues --    1.18599   1.19057   1.19222   1.19337   1.20175
 Alpha virt. eigenvalues --    1.20225   1.20369   1.20768   1.21178   1.21387
 Alpha virt. eigenvalues --    1.22036   1.22622   1.22996   1.23149   1.23811
 Alpha virt. eigenvalues --    1.24077   1.24366   1.24949   1.25803   1.26262
 Alpha virt. eigenvalues --    1.26456   1.26947   1.27870   1.28069   1.28397
 Alpha virt. eigenvalues --    1.28994   1.29202   1.29859   1.30794   1.31063
 Alpha virt. eigenvalues --    1.31392   1.32083   1.32521   1.33760   1.33922
 Alpha virt. eigenvalues --    1.34433   1.35039   1.35073   1.35728   1.37268
 Alpha virt. eigenvalues --    1.37862   1.38282   1.39752   1.39874   1.40463
 Alpha virt. eigenvalues --    1.41293   1.41849   1.42769   1.43442   1.44947
 Alpha virt. eigenvalues --    1.46220   1.46935   1.47087   1.47386   1.48254
 Alpha virt. eigenvalues --    1.49025   1.49394   1.50636   1.51046   1.51379
 Alpha virt. eigenvalues --    1.52978   1.53586   1.54176   1.54731   1.55825
 Alpha virt. eigenvalues --    1.56384   1.56579   1.57464   1.58503   1.58972
 Alpha virt. eigenvalues --    1.59396   1.59937   1.60565   1.60763   1.62004
 Alpha virt. eigenvalues --    1.62269   1.62792   1.62914   1.63715   1.64334
 Alpha virt. eigenvalues --    1.64561   1.65382   1.66096   1.66784   1.67133
 Alpha virt. eigenvalues --    1.68037   1.68407   1.69039   1.69164   1.69423
 Alpha virt. eigenvalues --    1.70211   1.70611   1.70925   1.71579   1.72470
 Alpha virt. eigenvalues --    1.72551   1.72991   1.73704   1.73966   1.74428
 Alpha virt. eigenvalues --    1.74787   1.75002   1.75366   1.75648   1.76011
 Alpha virt. eigenvalues --    1.76144   1.76401   1.77293   1.77336   1.77758
 Alpha virt. eigenvalues --    1.77913   1.78708   1.78806   1.78971   1.79567
 Alpha virt. eigenvalues --    1.79947   1.80205   1.80673   1.80858   1.81473
 Alpha virt. eigenvalues --    1.82012   1.82106   1.82402   1.83031   1.83105
 Alpha virt. eigenvalues --    1.83825   1.84368   1.85016   1.85175   1.85418
 Alpha virt. eigenvalues --    1.85661   1.85711   1.86258   1.87503   1.87681
 Alpha virt. eigenvalues --    1.88707   1.88834   1.89125   1.89918   1.90155
 Alpha virt. eigenvalues --    1.90498   1.90803   1.91301   1.92056   1.92845
 Alpha virt. eigenvalues --    1.93024   1.93448   1.93646   1.94009   1.95378
 Alpha virt. eigenvalues --    1.96014   1.96699   1.96879   1.97863   1.98797
 Alpha virt. eigenvalues --    1.99377   1.99974   2.00332   2.00577   2.01809
 Alpha virt. eigenvalues --    2.02305   2.03291   2.03540   2.03787   2.04199
 Alpha virt. eigenvalues --    2.04656   2.05953   2.06153   2.07758   2.08078
 Alpha virt. eigenvalues --    2.08760   2.09269   2.09948   2.10168   2.11163
 Alpha virt. eigenvalues --    2.12358   2.12544   2.13402   2.13731   2.14191
 Alpha virt. eigenvalues --    2.15145   2.16028   2.16523   2.17493   2.17996
 Alpha virt. eigenvalues --    2.19440   2.19899   2.20293   2.20989   2.21886
 Alpha virt. eigenvalues --    2.22587   2.23204   2.23511   2.24589   2.24913
 Alpha virt. eigenvalues --    2.25316   2.25950   2.26264   2.26661   2.27193
 Alpha virt. eigenvalues --    2.27703   2.29152   2.29278   2.29566   2.30424
 Alpha virt. eigenvalues --    2.30723   2.31665   2.32068   2.32191   2.32570
 Alpha virt. eigenvalues --    2.33111   2.33756   2.34299   2.34656   2.35253
 Alpha virt. eigenvalues --    2.35942   2.36150   2.36516   2.37285   2.38805
 Alpha virt. eigenvalues --    2.39406   2.39554   2.40656   2.41416   2.41868
 Alpha virt. eigenvalues --    2.42635   2.43124   2.43410   2.43930   2.44514
 Alpha virt. eigenvalues --    2.45205   2.45425   2.45818   2.46477   2.47541
 Alpha virt. eigenvalues --    2.48218   2.49453   2.50330   2.51256   2.51405
 Alpha virt. eigenvalues --    2.53205   2.54511   2.55591   2.55997   2.56483
 Alpha virt. eigenvalues --    2.57939   2.58236   2.58649   2.59447   2.60982
 Alpha virt. eigenvalues --    2.62013   2.62497   2.63600   2.64029   2.64674
 Alpha virt. eigenvalues --    2.65189   2.65311   2.65523   2.66358   2.67040
 Alpha virt. eigenvalues --    2.67316   2.68741   2.69282   2.69810   2.70309
 Alpha virt. eigenvalues --    2.70885   2.71720   2.72025   2.73132   2.73984
 Alpha virt. eigenvalues --    2.75350   2.75965   2.76215   2.76892   2.77162
 Alpha virt. eigenvalues --    2.77481   2.77865   2.78614   2.78988   2.79933
 Alpha virt. eigenvalues --    2.80253   2.80619   2.80864   2.81689   2.82224
 Alpha virt. eigenvalues --    2.82970   2.83314   2.84110   2.84518   2.85206
 Alpha virt. eigenvalues --    2.85879   2.86455   2.86702   2.86959   2.87437
 Alpha virt. eigenvalues --    2.87571   2.88477   2.89589   2.93660   2.94383
 Alpha virt. eigenvalues --    2.94990   2.96722   2.98633   2.98975   2.99740
 Alpha virt. eigenvalues --    3.00706   3.01871   3.03901   3.04517   3.06327
 Alpha virt. eigenvalues --    3.06631   3.10044   3.10519   3.12265   3.15244
 Alpha virt. eigenvalues --    3.15825   3.16372   3.16810   3.19203   3.21153
 Alpha virt. eigenvalues --    3.21537   3.23074   3.23835   3.25103   3.26515
 Alpha virt. eigenvalues --    3.44089   3.47035   3.47810   3.48868   3.50786
 Alpha virt. eigenvalues --    3.53005   3.54594   3.56526   3.58054   3.60361
 Alpha virt. eigenvalues --    3.63903   3.71416   3.75679
          Condensed to atoms (all electrons):
 Mulliken charges:
               1
     1  N   -0.300757
     2  C    0.183924
     3  C    0.060768
     4  N   -0.254841
     5  C    0.150736
     6  H    0.027702
     7  N   -0.287674
     8  C    0.124294
     9  H    0.007966
    10  N   -0.274469
    11  C    0.234556
    12  C    0.078140
    13  N   -0.058784
    14  H    0.115051
    15  H    0.085338
    16  H    0.025683
    17  H    0.030766
    18  H    0.013570
    19  N   -0.304948
    20  C    0.262380
    21  C    0.184381
    22  N   -0.115463
    23  H    0.120902
    24  H    0.118386
    25  N   -0.296886
    26  C    0.216536
    27  N   -0.124679
    28  H    0.119916
    29  C    0.180207
    30  O   -0.319811
    31  C   -0.015181
    32  N   -0.217201
    33  C    0.096706
    34  H    0.027498
    35  H    0.018758
    36  H    0.033317
    37  H    0.025608
    38  H    0.052537
    39  H    0.051193
    40  H    0.076801
    41  H    0.020595
    42  C   -0.102876
    43  O   -0.270071
    44  C    0.171597
    45  H    0.131260
    46  N   -0.121331
    47  O   -0.346855
    48  C    0.334053
    49  H    0.045946
    50  C    0.158340
    51  C    0.056277
    52  N   -0.274825
    53  H    0.036172
    54  H    0.041574
    55  H    0.029769
    56  H    0.123248
    57  H    0.118681
    58  N   -0.055397
    59  C    0.094544
    60  C    0.189899
    61  N   -0.254532
    62  H    0.026541
    63  C    0.170479
    64  N   -0.308451
    65  H    0.039320
    66  C    0.134959
    67  N   -0.253164
    68  C    0.032976
    69  C    0.179300
    70  N   -0.300953
 Sum of Mulliken charges =  -0.00000
 Mulliken charges with hydrogens summed into heavy atoms:
               1
     1  N   -0.300757
     2  C    0.253943
     3  C    0.060768
     4  N   -0.254841
     5  C    0.178438
     7  N   -0.287674
     8  C    0.132261
    10  N   -0.274469
    11  C    0.234556
    12  C    0.078140
    13  N    0.141604
    19  N   -0.304948
    20  C    0.262380
    21  C    0.262064
    22  N    0.123825
    25  N   -0.296886
    26  C    0.216536
    27  N   -0.004763
    29  C    0.180207
    30  O   -0.319811
    31  C   -0.015181
    32  N   -0.217201
    33  C    0.124204
    42  C   -0.082281
    43  O   -0.270071
    44  C    0.171597
    46  N    0.009929
    47  O   -0.346855
    48  C    0.334053
    50  C    0.204285
    51  C    0.236808
    52  N   -0.274825
    58  N    0.186533
    59  C    0.094544
    60  C    0.189899
    61  N   -0.254532
    63  C    0.197020
    64  N   -0.308451
    66  C    0.174279
    67  N   -0.253164
    68  C    0.032976
    69  C    0.286814
    70  N   -0.300953
 Electronic spatial extent (au):  <R**2>=          22576.2356
 Charge=             -0.0000 electrons
 Dipole moment (field-independent basis, Debye):
    X=             -6.4378    Y=              7.4799    Z=             -2.1198  Tot=             10.0939
 Quadrupole moment (field-independent basis, Debye-Ang):
   XX=           -151.0562   YY=           -228.1811   ZZ=           -255.4308
   XY=             -1.7067   XZ=            -12.3219   YZ=             13.1964
 Traceless Quadrupole moment (field-independent basis, Debye-Ang):
   XX=             60.4999   YY=            -16.6251   ZZ=            -43.8748
   XY=             -1.7067   XZ=            -12.3219   YZ=             13.1964
 Octapole moment (field-independent basis, Debye-Ang**2):
  XXX=             82.7011  YYY=            109.6194  ZZZ=              9.3146  XYY=           -102.2690
  XXY=            133.5098  XXZ=            -46.6549  XZZ=            -32.3616  YZZ=             25.7878
  YYZ=            -51.9569  XYZ=             46.4043
 Hexadecapole moment (field-independent basis, Debye-Ang**3):
 XXXX=         -17044.9156 YYYY=          -4178.7681 ZZZZ=          -3661.0748 XXXY=           -649.6479
 XXXZ=           -200.5744 YYYX=             56.3109 YYYZ=            107.9261 ZZZX=            -72.5490
 ZZZY=             33.8573 XXYY=          -3581.3910 XXZZ=          -4095.8513 YYZZ=          -1427.0072
 XXYZ=            -11.6539 YYXZ=             91.1816 ZZXY=            -47.6516
 N-N= 5.548457509295D+03 E-N=-1.587727290395D+04  KE= 2.037790996333D+03
 No NMR shielding tensors so no spin-rotation constants.
 Leave Link  601 at Sun Jan 21 01:42:30 2018, MaxMem=  4294967296 cpu:              46.7 elap:               1.6
 (Enter /share/apps/g16/l9999.exe)
 1\1\GINC-COMPUTE-0-3\SP\RwB97XD\CC-pVDZ\C23H27N17O3\SATYA\21-Jan-2018\
 0\\#p wb97xd/cc-pvdz sp scf=(maxcycles=20)\\Base pair stacking\\0,1\N,
 0,1.29738,1.29604,-6.5262\C,0,1.51411,2.75546,-6.55953\C,0,0.36455,-0.
 69351,-6.43206\N,0,1.7311,-0.91003,-6.53398\C,0,2.2384,0.29726,-6.5866
 2\H,0,3.30261,0.51948,-6.67049\N,0,-1.9626,-1.03157,-6.25036\C,0,-2.07
 958,0.3003,-6.25673\H,0,-3.09852,0.67795,-6.18322\N,0,-1.13132,1.23131
 ,-6.33989\C,0,0.082,0.66136,-6.42604\C,0,-0.7285,-1.57407,-6.33842\N,0
 ,-0.60968,-2.90336,-6.33222\H,0,0.28433,-3.34831,-6.39541\H,0,-1.40979
 ,-3.49947,-6.26423\H,0,1.9661,3.00723,-7.4154\H,0,0.63407,3.22538,-6.4
 9769\H,0,2.08984,3.02674,-5.78821\N,0,0.19228,2.92716,-3.21657\C,0,-0.
 63604,1.83197,-3.16662\C,0,-0.2542,4.33436,-3.25055\N,0,-3.83416,0.481
 9,-3.06154\H,0,-4.2507,-0.42609,-3.02553\H,0,-4.45536,1.26593,-3.07303
 \N,0,-1.98612,1.85716,-3.14041\C,0,-2.50251,0.64196,-3.09303\N,0,-1.75
 564,-0.51099,-3.0728\H,0,-2.23577,-1.39705,-3.03619\C,0,-0.36542,-0.56
 065,-3.09907\O,0,0.21221,-1.65455,-3.07726\C,0,0.20363,0.73722,-3.1500
 2\N,0,1.53235,1.13707,-3.18877\C,0,1.47679,2.44077,-3.22741\H,0,2.3458
 5,3.0985,-3.26484\H,0,0.07597,4.77044,-4.08699\H,0,-1.25266,4.36557,-3
 .23155\H,0,0.10857,4.82017,-2.45607\H,0,-5.22466,-5.484,-3.50098\H,0,-
 4.97198,-5.60906,-1.76168\H,0,-4.99434,-4.02486,-2.53702\H,0,-0.81165,
 -7.39683,-3.38711\C,0,-1.29565,-6.43018,-3.2473\O,0,0.71473,-5.18745,-
 3.45\C,0,-0.5027,-5.23931,-3.27687\H,0,-0.68735,-3.20846,-3.10402\N,0,
 -1.21336,-4.07091,-3.08961\O,0,-3.10473,-2.86702,-2.72828\C,0,-2.56479
 ,-3.94811,-2.88446\H,0,-3.26355,-7.21798,-3.01806\C,0,-2.61614,-6.3426
 3,-3.04917\C,0,-4.70802,-5.0596,-2.65302\N,0,-3.2608,-5.14082,-2.8691\
 H,0,-8.67284,-5.21631,-5.87235\H,0,-7.83859,-4.16023,-4.94995\H,0,-8.4
 0755,-5.54302,-4.29555\H,0,-1.39082,-6.49094,-6.51501\H,0,-2.55526,-7.
 73608,-6.57653\N,0,-2.34522,-6.7716,-6.41259\C,0,-3.29634,-5.8993,-6.0
 7256\C,0,-5.52076,-5.22774,-5.56\N,0,-5.20956,-3.93864,-5.346\H,0,-3.5
 6618,-2.71414,-5.36923\C,0,-3.90537,-3.73755,-5.52364\N,0,-2.95113,-4.
 60992,-5.86422\H,0,-7.40356,-7.84629,-5.78451\C,0,-6.57399,-7.13868,-5
 .77775\N,0,-5.32961,-7.4466,-6.05048\C,0,-4.65121,-6.24393,-5.91605\C,
 0,-8.02075,-5.12835,-5.11933\N,0,-6.76176,-5.81272,-5.47228\\Version=E
 M64L-G16RevA.03\State=1-A\HF=-2048.7454164\RMSD=6.819e-09\Dipole=-3.94
 78429,-0.4220382,-0.084876\Quadrupole=-0.1198221,26.5881809,-26.468358
 8,29.4475353,-15.0440547,2.139619\PG=C01 [X(C23H27N17O3)]\\@


 HERE WE GO......
 SLIDING DOWN THE RAZOR BLADE OF LIFE......
                                 TOM LEHRER
 Job cpu time:       0 days  6 hours  8 minutes 45.3 seconds.
 Elapsed time:       0 days  0 hours 11 minutes 55.5 seconds.
 File lengths (MBytes):  RWF=    298 Int=      0 D2E=      0 Chk=     33 Scr=      1
 Normal termination of Gaussian 16 at Sun Jan 21 01:42:30 2018.
