 Entering Gaussian System, Link 0=g16
 Input=str25.-15.2.5.com
 Output=str25.-15.2.5.log
 Initial command:
 /share/apps/g16/l1.exe "/state/partition1/scr/Gau-15238.inp" -scrdir="/state/partition1/scr/"
 Entering Link 1 = /share/apps/g16/l1.exe PID=     15239.
  
 Copyright (c) 1988,1990,1992,1993,1995,1998,2003,2009,2016,
            Gaussian, Inc.  All Rights Reserved.
  
 This is part of the Gaussian(R) 16 program.  It is based on
 the Gaussian(R) 09 system (copyright 2009, Gaussian, Inc.),
 the Gaussian(R) 03 system (copyright 2003, Gaussian, Inc.),
 the Gaussian(R) 98 system (copyright 1998, Gaussian, Inc.),
 the Gaussian(R) 94 system (copyright 1995, Gaussian, Inc.),
 the Gaussian 92(TM) system (copyright 1992, Gaussian, Inc.),
 the Gaussian 90(TM) system (copyright 1990, Gaussian, Inc.),
 the Gaussian 88(TM) system (copyright 1988, Gaussian, Inc.),
 the Gaussian 86(TM) system (copyright 1986, Carnegie Mellon
 University), and the Gaussian 82(TM) system (copyright 1983,
 Carnegie Mellon University). Gaussian is a federally registered
 trademark of Gaussian, Inc.
  
 This software contains proprietary and confidential information,
 including trade secrets, belonging to Gaussian, Inc.
  
 This software is provided under written license and may be
 used, copied, transmitted, or stored only in accord with that
 written license.
  
 The following legend is applicable only to US Government
 contracts under FAR:
  
                    RESTRICTED RIGHTS LEGEND
  
 Use, reproduction and disclosure by the US Government is
 subject to restrictions as set forth in subparagraphs (a)
 and (c) of the Commercial Computer Software - Restricted
 Rights clause in FAR 52.227-19.
  
 Gaussian, Inc.
 340 Quinnipiac St., Bldg. 40, Wallingford CT 06492
  
  
 ---------------------------------------------------------------
 Warning -- This program may not be used in any manner that
 competes with the business of Gaussian, Inc. or will provide
 assistance to any competitor of Gaussian, Inc.  The licensee
 of this program is prohibited from giving any competitor of
 Gaussian, Inc. access to this program.  By using this program,
 the user acknowledges that Gaussian, Inc. is engaged in the
 business of creating and licensing software in the field of
 computational chemistry and represents and warrants to the
 licensee that it is not a competitor of Gaussian, Inc. and that
 it will not use this program in any manner prohibited above.
 ---------------------------------------------------------------
  

 Cite this work as:
 Gaussian 16, Revision A.03,
 M. J. Frisch, G. W. Trucks, H. B. Schlegel, G. E. Scuseria, 
 M. A. Robb, J. R. Cheeseman, G. Scalmani, V. Barone, 
 G. A. Petersson, H. Nakatsuji, X. Li, M. Caricato, A. V. Marenich, 
 J. Bloino, B. G. Janesko, R. Gomperts, B. Mennucci, H. P. Hratchian, 
 J. V. Ortiz, A. F. Izmaylov, J. L. Sonnenberg, D. Williams-Young, 
 F. Ding, F. Lipparini, F. Egidi, J. Goings, B. Peng, A. Petrone, 
 T. Henderson, D. Ranasinghe, V. G. Zakrzewski, J. Gao, N. Rega, 
 G. Zheng, W. Liang, M. Hada, M. Ehara, K. Toyota, R. Fukuda, 
 J. Hasegawa, M. Ishida, T. Nakajima, Y. Honda, O. Kitao, H. Nakai, 
 T. Vreven, K. Throssell, J. A. Montgomery, Jr., J. E. Peralta, 
 F. Ogliaro, M. J. Bearpark, J. J. Heyd, E. N. Brothers, K. N. Kudin, 
 V. N. Staroverov, T. A. Keith, R. Kobayashi, J. Normand, 
 K. Raghavachari, A. P. Rendell, J. C. Burant, S. S. Iyengar, 
 J. Tomasi, M. Cossi, J. M. Millam, M. Klene, C. Adamo, R. Cammi, 
 J. W. Ochterski, R. L. Martin, K. Morokuma, O. Farkas, 
 J. B. Foresman, and D. J. Fox, Gaussian, Inc., Wallingford CT, 2016.
 
 ******************************************
 Gaussian 16:  EM64L-G16RevA.03 25-Dec-2016
                20-Jan-2018 
 ******************************************
 %nprocshared=32
 Will use up to   32 processors via shared memory.
 %mem=32GB
 %chk=allatoms_t.chk
 ---------------------------------------
 #p wb97xd/cc-pvdz sp scf=(maxcycles=20)
 ---------------------------------------
 1/38=1,172=1/1;
 2/12=2,17=6,18=5,40=1/2;
 3/5=16,11=2,25=1,30=1,74=-58/1,2,3;
 4//1;
 5/5=2,7=20,38=5/2;
 6/7=2,8=2,9=2,10=2,28=1/1;
 99/5=1,9=1/99;
 Leave Link    1 at Sat Jan 20 17:30:47 2018, MaxMem=  4294967296 cpu:               2.7 elap:               0.1
 (Enter /share/apps/g16/l101.exe)
 ------------------
 Base pair stacking
 ------------------
 Symbolic Z-matrix:
 Charge =  0 Multiplicity = 1
 N                    -0.15007   0.67985  -6.38383 
 C                     0.1039    2.13019  -6.28378 
 C                    -1.09031  -1.30594  -6.28428 
 N                     0.1756   -1.5022   -6.8169 
 C                     0.69139  -0.29798  -6.85556 
 H                     1.69114  -0.0632   -7.22206 
 N                    -3.27125  -1.6727   -5.46456 
 C                    -3.33284  -0.35339  -5.25673 
 H                    -4.26904   0.00738  -4.83289 
 N                    -2.41592   0.5828   -5.49276 
 C                    -1.3054    0.03395  -6.01232 
 C                    -2.14039  -2.19405  -5.98842 
 N                    -2.07699  -3.51079  -6.19661 
 H                    -1.25962  -3.93998  -6.58252 
 H                    -2.84392  -4.11281  -5.97406 
 H                     0.29233   2.50051  -7.19347 
 H                    -0.69957   2.58433  -5.89995 
 H                     0.89192   2.29252  -5.68992 
 N                    -0.17629   2.45765  -3.0891 
 C                    -0.99156   1.36136  -2.9423 
 C                    -0.61357   3.86514  -2.9972 
 N                    -4.13618   0.00836  -2.35709 
 H                    -4.54655  -0.90034  -2.28555 
 H                    -4.74586   0.79228  -2.23674 
 N                    -2.31841   1.38557  -2.69145 
 C                    -2.82725   0.16946  -2.60333 
 N                    -2.09446  -0.98345  -2.74938 
 H                    -2.5673   -1.87026  -2.66589 
 C                    -0.72819  -1.03212  -3.00783 
 O                    -0.16167  -2.12608  -3.12207 
 C                    -0.16751   0.26674  -3.1052 
 N                     1.13881   0.66774  -3.34936 
 C                     1.08561   1.97198  -3.33071 
 H                     1.94045   2.63063  -3.48788 
 H                    -0.42405   4.33183  -3.86039 
 H                    -1.59484   3.89564  -2.81161 
 H                    -0.12108   4.32126  -2.25679 
 H                    -5.61692  -5.93722  -2.77673 
 H                    -5.08002  -6.12647  -1.10922 
 H                    -5.22095  -4.5147   -1.81185 
 H                    -1.25798  -7.85299  -3.46671 
 C                    -1.70615  -6.89216  -3.21337 
 O                     0.25036  -5.6428   -3.70153 
 C                    -0.92178  -5.70101  -3.33073 
 H                    -1.06273  -3.67793  -3.05575 
 N                    -1.58435  -4.54033  -2.98567 
 O                    -3.38216  -3.3506   -2.27179 
 C                    -2.88226  -4.42518  -2.5547 
 H                    -3.61357  -7.68787  -2.68953 
 C                    -2.97492  -6.81198  -2.79575 
 C                    -4.9642   -5.54445  -2.01139 
 N                    -3.57339  -5.61763  -2.46751 
 H                    -9.7282   -5.8882   -3.67023 
 H                    -8.61816  -4.96919  -2.90516 
 H                    -9.02188  -6.43156  -2.30301 
 H                    -3.01658  -7.0397   -6.61874 
 H                    -4.19487  -8.2673   -6.49725 
 N                    -3.90832  -7.33464  -6.27528 
 C                    -4.68175  -6.5212   -5.55329 
 C                    -6.62749  -5.93427  -4.31582 
 N                    -6.21692  -4.68691  -4.03306 
 H                    -4.60731  -3.46655  -4.38014 
 C                    -5.01662  -4.45925  -4.56253 
 N                    -4.24037  -5.27267  -5.28598 
 H                    -8.59322  -8.50099  -4.31888 
 C                    -7.77174  -7.79893  -4.46458 
 N                    -6.67648  -8.06213  -5.13451 
 C                    -5.94227  -6.88818  -5.04798 
 C                    -8.87985  -5.9046   -3.14106 
 N                    -7.80902  -6.52929  -3.94175 
 
 ITRead=  0  0  0  0  0  0  0  0  0  0  0  0  0  0  0  0  0  0  0  0
 ITRead=  0  0  0  0  0  0  0  0  0  0  0  0  0  0  0  0  0  0  0  0
 ITRead=  0  0  0  0  0  0  0  0  0  0  0  0  0  0  0  0  0  0  0  0
 ITRead=  0  0  0  0  0  0  0  0  0  0
 MicOpt= -1 -1 -1 -1 -1 -1 -1 -1 -1 -1 -1 -1 -1 -1 -1 -1 -1 -1 -1 -1
 MicOpt= -1 -1 -1 -1 -1 -1 -1 -1 -1 -1 -1 -1 -1 -1 -1 -1 -1 -1 -1 -1
 MicOpt= -1 -1 -1 -1 -1 -1 -1 -1 -1 -1 -1 -1 -1 -1 -1 -1 -1 -1 -1 -1
 MicOpt= -1 -1 -1 -1 -1 -1 -1 -1 -1 -1
 NAtoms=     70 NQM=       70 NQMF=       0 NMMI=      0 NMMIF=      0
                NMic=       0 NMicF=      0.
                    Isotopes and Nuclear Properties:
 (Nuclear quadrupole moments (NQMom) in fm**2, nuclear magnetic moments (NMagM)
  in nuclear magnetons)

  Atom         1           2           3           4           5           6           7           8           9          10
 IAtWgt=          14          12          12          14          12           1          14          12           1          14
 AtmWgt=  14.0030740  12.0000000  12.0000000  14.0030740  12.0000000   1.0078250  14.0030740  12.0000000   1.0078250  14.0030740
 NucSpn=           2           0           0           2           0           1           2           0           1           2
 AtZEff=  -0.0000000  -0.0000000  -0.0000000  -0.0000000  -0.0000000  -0.0000000  -0.0000000  -0.0000000  -0.0000000  -0.0000000
 NQMom=    2.0440000   0.0000000   0.0000000   2.0440000   0.0000000   0.0000000   2.0440000   0.0000000   0.0000000   2.0440000
 NMagM=    0.4037610   0.0000000   0.0000000   0.4037610   0.0000000   2.7928460   0.4037610   0.0000000   2.7928460   0.4037610
 AtZNuc=   7.0000000   6.0000000   6.0000000   7.0000000   6.0000000   1.0000000   7.0000000   6.0000000   1.0000000   7.0000000

  Atom        11          12          13          14          15          16          17          18          19          20
 IAtWgt=          12          12          14           1           1           1           1           1          14          12
 AtmWgt=  12.0000000  12.0000000  14.0030740   1.0078250   1.0078250   1.0078250   1.0078250   1.0078250  14.0030740  12.0000000
 NucSpn=           0           0           2           1           1           1           1           1           2           0
 AtZEff=  -0.0000000  -0.0000000  -0.0000000  -0.0000000  -0.0000000  -0.0000000  -0.0000000  -0.0000000  -0.0000000  -0.0000000
 NQMom=    0.0000000   0.0000000   2.0440000   0.0000000   0.0000000   0.0000000   0.0000000   0.0000000   2.0440000   0.0000000
 NMagM=    0.0000000   0.0000000   0.4037610   2.7928460   2.7928460   2.7928460   2.7928460   2.7928460   0.4037610   0.0000000
 AtZNuc=   6.0000000   6.0000000   7.0000000   1.0000000   1.0000000   1.0000000   1.0000000   1.0000000   7.0000000   6.0000000

  Atom        21          22          23          24          25          26          27          28          29          30
 IAtWgt=          12          14           1           1          14          12          14           1          12          16
 AtmWgt=  12.0000000  14.0030740   1.0078250   1.0078250  14.0030740  12.0000000  14.0030740   1.0078250  12.0000000  15.9949146
 NucSpn=           0           2           1           1           2           0           2           1           0           0
 AtZEff=  -0.0000000  -0.0000000  -0.0000000  -0.0000000  -0.0000000  -0.0000000  -0.0000000  -0.0000000  -0.0000000  -0.0000000
 NQMom=    0.0000000   2.0440000   0.0000000   0.0000000   2.0440000   0.0000000   2.0440000   0.0000000   0.0000000   0.0000000
 NMagM=    0.0000000   0.4037610   2.7928460   2.7928460   0.4037610   0.0000000   0.4037610   2.7928460   0.0000000   0.0000000
 AtZNuc=   6.0000000   7.0000000   1.0000000   1.0000000   7.0000000   6.0000000   7.0000000   1.0000000   6.0000000   8.0000000

  Atom        31          32          33          34          35          36          37          38          39          40
 IAtWgt=          12          14          12           1           1           1           1           1           1           1
 AtmWgt=  12.0000000  14.0030740  12.0000000   1.0078250   1.0078250   1.0078250   1.0078250   1.0078250   1.0078250   1.0078250
 NucSpn=           0           2           0           1           1           1           1           1           1           1
 AtZEff=  -0.0000000  -0.0000000  -0.0000000  -0.0000000  -0.0000000  -0.0000000  -0.0000000  -0.0000000  -0.0000000  -0.0000000
 NQMom=    0.0000000   2.0440000   0.0000000   0.0000000   0.0000000   0.0000000   0.0000000   0.0000000   0.0000000   0.0000000
 NMagM=    0.0000000   0.4037610   0.0000000   2.7928460   2.7928460   2.7928460   2.7928460   2.7928460   2.7928460   2.7928460
 AtZNuc=   6.0000000   7.0000000   6.0000000   1.0000000   1.0000000   1.0000000   1.0000000   1.0000000   1.0000000   1.0000000

  Atom        41          42          43          44          45          46          47          48          49          50
 IAtWgt=           1          12          16          12           1          14          16          12           1          12
 AtmWgt=   1.0078250  12.0000000  15.9949146  12.0000000   1.0078250  14.0030740  15.9949146  12.0000000   1.0078250  12.0000000
 NucSpn=           1           0           0           0           1           2           0           0           1           0
 AtZEff=  -0.0000000  -0.0000000  -0.0000000  -0.0000000  -0.0000000  -0.0000000  -0.0000000  -0.0000000  -0.0000000  -0.0000000
 NQMom=    0.0000000   0.0000000   0.0000000   0.0000000   0.0000000   2.0440000   0.0000000   0.0000000   0.0000000   0.0000000
 NMagM=    2.7928460   0.0000000   0.0000000   0.0000000   2.7928460   0.4037610   0.0000000   0.0000000   2.7928460   0.0000000
 AtZNuc=   1.0000000   6.0000000   8.0000000   6.0000000   1.0000000   7.0000000   8.0000000   6.0000000   1.0000000   6.0000000

  Atom        51          52          53          54          55          56          57          58          59          60
 IAtWgt=          12          14           1           1           1           1           1          14          12          12
 AtmWgt=  12.0000000  14.0030740   1.0078250   1.0078250   1.0078250   1.0078250   1.0078250  14.0030740  12.0000000  12.0000000
 NucSpn=           0           2           1           1           1           1           1           2           0           0
 AtZEff=  -0.0000000  -0.0000000  -0.0000000  -0.0000000  -0.0000000  -0.0000000  -0.0000000  -0.0000000  -0.0000000  -0.0000000
 NQMom=    0.0000000   2.0440000   0.0000000   0.0000000   0.0000000   0.0000000   0.0000000   2.0440000   0.0000000   0.0000000
 NMagM=    0.0000000   0.4037610   2.7928460   2.7928460   2.7928460   2.7928460   2.7928460   0.4037610   0.0000000   0.0000000
 AtZNuc=   6.0000000   7.0000000   1.0000000   1.0000000   1.0000000   1.0000000   1.0000000   7.0000000   6.0000000   6.0000000

  Atom        61          62          63          64          65          66          67          68          69          70
 IAtWgt=          14           1          12          14           1          12          14          12          12          14
 AtmWgt=  14.0030740   1.0078250  12.0000000  14.0030740   1.0078250  12.0000000  14.0030740  12.0000000  12.0000000  14.0030740
 NucSpn=           2           1           0           2           1           0           2           0           0           2
 AtZEff=  -0.0000000  -0.0000000  -0.0000000  -0.0000000  -0.0000000  -0.0000000  -0.0000000  -0.0000000  -0.0000000  -0.0000000
 NQMom=    2.0440000   0.0000000   0.0000000   2.0440000   0.0000000   0.0000000   2.0440000   0.0000000   0.0000000   2.0440000
 NMagM=    0.4037610   2.7928460   0.0000000   0.4037610   2.7928460   0.0000000   0.4037610   0.0000000   0.0000000   0.4037610
 AtZNuc=   7.0000000   1.0000000   6.0000000   7.0000000   1.0000000   6.0000000   7.0000000   6.0000000   6.0000000   7.0000000
 Leave Link  101 at Sat Jan 20 17:30:47 2018, MaxMem=  4294967296 cpu:               7.6 elap:               0.3
 (Enter /share/apps/g16/l202.exe)
 Stoichiometry    C23H27N17O3
 Framework group  C1[X(C23H27N17O3)]
 Deg. of freedom   204
 Full point group                 C1      NOp   1
 Largest Abelian subgroup         C1      NOp   1
 Largest concise Abelian subgroup C1      NOp   1
                         Standard orientation:                         
 ---------------------------------------------------------------------
 Center     Atomic      Atomic             Coordinates (Angstroms)
 Number     Number       Type             X           Y           Z
 ---------------------------------------------------------------------
      1          7           0        4.303941   -1.034234   -1.904785
      2          6           0        5.642804   -0.425416   -2.026377
      3          6           0        2.132412   -1.327449   -1.715551
      4          7           0        2.693807   -2.595694   -1.749019
      5          6           0        3.979602   -2.368281   -1.861689
      6          1           0        4.743801   -3.144009   -1.918178
      7          7           0        0.585015    0.449055   -1.603526
      8          6           0        1.635811    1.269738   -1.702894
      9          1           0        1.398123    2.332613   -1.694776
     10          7           0        2.930061    0.975997   -1.810305
     11          6           0        3.112486   -0.354850   -1.810619
     12          6           0        0.801693   -0.884406   -1.606741
     13          7           0       -0.245954   -1.705248   -1.507636
     14          1           0       -0.132446   -2.699400   -1.505920
     15          1           0       -1.179480   -1.354661   -1.431767
     16          1           0        6.071082   -0.726162   -2.878615
     17          1           0        5.557772    0.570518   -2.030547
     18          1           0        6.210606   -0.706540   -1.252706
     19          7           0        5.698010    1.197540    0.758346
     20          6           0        4.330499    1.295559    0.849856
     21          6           0        6.611813    2.304103    0.410253
     22          7           0        1.429576    3.192462    0.630500
     23          1           0        0.446631    3.053305    0.747595
     24          1           0        1.730816    4.112837    0.379722
     25          7           0        3.597729    2.410265    0.638854
     26          6           0        2.305153    2.190517    0.801836
     27          7           0        1.769155    0.973006    1.145181
     28          1           0        0.768840    0.897291    1.248215
     29          6           0        2.504097   -0.187354    1.367186
     30          8           0        1.922434   -1.235642    1.672967
     31          6           0        3.894394    0.033049    1.195788
     32          7           0        4.966528   -0.840016    1.318974
     33          6           0        6.012996   -0.106958    1.051113
     34          1           0        7.041684   -0.468996    1.052851
     35          1           0        7.119439    2.071215   -0.418537
     36          1           0        6.080292    3.135131    0.251692
     37          1           0        7.252889    2.458006    1.161342
     38          1           0       -4.306754    1.025852    0.975355
     39          1           0       -4.190045    1.166366    2.727868
     40          1           0       -2.926248    1.847840    1.703288
     41          1           0       -3.417902   -3.549333    2.168766
     42          6           0       -2.881898   -2.606705    2.057484
     43          8           0       -0.738307   -3.620793    1.996038
     44          6           0       -1.454022   -2.620051    1.963467
     45          1           0        0.131863   -1.343319    1.755480
     46          7           0       -0.875569   -1.374466    1.825074
     47          8           0       -0.919942    0.889019    1.646546
     48          6           0       -1.520158   -0.164036    1.770953
     49          1           0       -4.623902   -1.377505    2.074940
     50          6           0       -3.538687   -1.441898    2.007836
     51          6           0       -3.628066    1.034793    1.815212
     52          7           0       -2.895985   -0.233674    1.868157
     53          1           0       -6.568840    3.818330   -1.212886
     54          1           0       -5.197770    3.757480   -0.330522
     55          1           0       -6.643576    3.527996    0.391340
     56          1           0       -3.681814   -3.012330   -1.482451
     57          1           0       -5.362007   -2.718257   -1.506954
     58          7           0       -4.434358   -2.358944   -1.399265
     59          6           0       -4.211853   -1.065785   -1.155586
     60          6           0       -4.846697    1.195878   -0.776675
     61          7           0       -3.590373    1.650265   -0.636646
     62          1           0       -1.668881    0.938314   -0.676434
     63          6           0       -2.716038    0.655746   -0.775782
     64          7           0       -2.936910   -0.640104   -1.019882
     65          1           0       -8.074338    1.334049   -0.900766
     66          6           0       -7.028829    1.024536   -0.908354
     67          7           0       -6.616482   -0.202914   -1.110869
     68          6           0       -5.234741   -0.108264   -1.029982
     69          6           0       -6.113422    3.372496   -0.442293
     70          7           0       -6.010966    1.922837   -0.699220
 ---------------------------------------------------------------------
 Rotational constants (GHZ):           0.1731764           0.0504849           0.0482724
 Leave Link  202 at Sat Jan 20 17:30:47 2018, MaxMem=  4294967296 cpu:               1.0 elap:               0.1
 (Enter /share/apps/g16/l301.exe)
 Standard basis: CC-pVDZ (5D, 7F)
 Ernie: Thresh=  0.10000D-02 Tol=  0.10000D-05 Strict=F.
 Ernie:  86 primitive shells out of 1081 were deleted.
 There are   780 symmetry adapted cartesian basis functions of A   symmetry.
 There are   737 symmetry adapted basis functions of A   symmetry.
   737 basis functions,  1608 primitive gaussians,   780 cartesian basis functions
   154 alpha electrons      154 beta electrons
       nuclear repulsion energy      5570.7520973654 Hartrees.
 IExCor= 4639 DFT=T Ex+Corr=wB97XD ExCW=0 ScaHFX=  1.000000
 ScaDFX=  1.000000  1.000000  1.000000  1.000000 ScalE2=  1.000000  1.000000
 IRadAn=      5 IRanWt=     -1 IRanGd=            0 ICorTp=0 IEmpDi=121
 HFx  wShort=  0.000000 wLong=  0.200000 cFull=  0.222036 cShort=  0.000000 cLong=  0.777964
 DFx  wShort=  0.000000 wLong=  0.200000 cFull=  0.000000 cShort=  0.000000 cLong=  1.000000
 NAtoms=   70 NActive=   70 NUniq=   70 SFac= 1.00D+00 NAtFMM=   60 NAOKFM=T Big=T
 Integral buffers will be    131072 words long.
 Raffenetti 2 integral format.
 Two-electron integral symmetry is turned on.
 R6Disp:  Grimme-D2 Dispersion energy=       -0.0776136315 Hartrees.
 Nuclear repulsion after empirical dispersion term =     5570.6744837339 Hartrees.
 Leave Link  301 at Sat Jan 20 17:30:47 2018, MaxMem=  4294967296 cpu:               5.4 elap:               0.2
 (Enter /share/apps/g16/l302.exe)
 NPDir=0 NMtPBC=     1 NCelOv=     1 NCel=       1 NClECP=     1 NCelD=      1
         NCelK=      1 NCelE2=     1 NClLst=     1 CellRange=     0.0.
 One-electron integrals computed using PRISM.
 One-electron integral symmetry used in STVInt
 NBasis=   737 RedAO= T EigKep=  6.73D-04  NBF=   737
 NBsUse=   737 1.00D-06 EigRej= -1.00D+00 NBFU=   737
 Precomputing XC quadrature grid using
 IXCGrd= 4 IRadAn=           5 IRanWt=          -1 IRanGd=           0 AccXCQ= 0.00D+00.
 Generated NRdTot=       0 NPtTot=           0 NUsed=           0 NTot=          32
 NSgBfM=   761   759   760   760   761 MxSgAt=    70 MxSgA2=    70.
 Leave Link  302 at Sat Jan 20 17:30:52 2018, MaxMem=  4294967296 cpu:             141.1 elap:               4.5
 (Enter /share/apps/g16/l303.exe)
 DipDrv:  MaxL=1.
 Leave Link  303 at Sat Jan 20 17:30:52 2018, MaxMem=  4294967296 cpu:              12.5 elap:               0.4
 (Enter /share/apps/g16/l401.exe)
 ExpMin= 1.22D-01 ExpMax= 1.17D+04 ExpMxC= 4.01D+02 IAcc=3 IRadAn=         5 AccDes= 0.00D+00
 Harris functional with IExCor= 4639 and IRadAn=       5 diagonalized for initial guess.
 HarFok:  IExCor= 4639 AccDes= 0.00D+00 IRadAn=         5 IDoV= 1 UseB2=F ITyADJ=14
 ICtDFT=  3500011 ScaDFX=  1.000000  1.000000  1.000000  1.000000
 FoFCou: FMM=F IPFlag=           0 FMFlag=      100000 FMFlg1=        2001
         NFxFlg=           0 DoJE=T BraDBF=F KetDBF=T FulRan=T
         wScrn=  0.000000 ICntrl=       500 IOpCl=  0 I1Cent=   200000004 NGrid=           0
         NMat0=    1 NMatS0=      1 NMatT0=    0 NMatD0=    1 NMtDS0=    0 NMtDT0=    0
 Petite list used in FoFCou.
 Harris En= -1963.83223051581    
 JPrj=0 DoOrth=F DoCkMO=F.
 Leave Link  401 at Sat Jan 20 17:31:05 2018, MaxMem=  4294967296 cpu:             406.6 elap:              12.8
 (Enter /share/apps/g16/l502.exe)
 Integral symmetry usage will be decided dynamically.
 Closed shell SCF:
 Using DIIS extrapolation, IDIIS=  1040.
 NGot=  4294967296 LenX=  4293717438 LenY=  4293108258
 Requested convergence on RMS density matrix=1.00D-08 within  20 cycles.
 Requested convergence on MAX density matrix=1.00D-06.
 Requested convergence on             energy=1.00D-06.
 No special actions if energy rises.
 Fock matrices will be formed incrementally for  20 cycles.
 Integral accuracy reduced to 1.0D-05 until final iterations.

 Cycle   1  Pass 0  IDiag  1:
 FoFJK:  IHMeth= 1 ICntrl=       0 DoSepK=T KAlg= 0 I1Cent=           0 FoldK=F
 IRaf=         1 NMat=       1 IRICut=       1 DoRegI=T DoRafI=F ISym2E= 0 IDoP0=0 IntGTp=1.
 FoFCou: FMM=T IPFlag=           0 FMFlag=      100000 FMFlg1=        2001
         NFxFlg=           0 DoJE=T BraDBF=F KetDBF=F FulRan=T
         wScrn=  0.000000 ICntrl=       500 IOpCl=  0 I1Cent=           0 NGrid=           0
         NMat0=    1 NMatS0=      1 NMatT0=    0 NMatD0=    1 NMtDS0=    0 NMtDT0=    0
 Symmetry not used in FoFCou.
 FMM levels:  10  Number of levels for PrismC:   9
 E= -2048.27580106756    
 DIIS: error= 1.83D-02 at cycle   1 NSaved=   1.
 NSaved= 1 IEnMin= 1 EnMin= -2048.27580106756     IErMin= 1 ErrMin= 1.83D-02
 ErrMax= 1.83D-02  0.00D+00 EMaxC= 1.00D-01 BMatC= 8.31D-01 BMatP= 8.31D-01
 IDIUse=3 WtCom= 8.17D-01 WtEn= 1.83D-01
 Coeff-Com:  0.100D+01
 Coeff-En:   0.100D+01
 Coeff:      0.100D+01
 Gap=     0.267 Goal=   None    Shift=    0.000
 GapD=    0.267 DampG=1.000 DampE=0.500 DampFc=0.5000 IDamp=-1.
 Damping current iteration by 5.00D-01
 RMSDP=1.57D-03 MaxDP=1.29D-01              OVMax= 2.06D-01

 Cycle   2  Pass 0  IDiag  1:
 RMSU=  7.86D-04    CP:  9.98D-01
 E= -2048.47419716795     Delta-E=       -0.198396100393 Rises=F Damp=T
 DIIS: error= 1.00D-02 at cycle   2 NSaved=   2.
 NSaved= 2 IEnMin= 2 EnMin= -2048.47419716795     IErMin= 2 ErrMin= 1.00D-02
 ErrMax= 1.00D-02  0.00D+00 EMaxC= 1.00D-01 BMatC= 1.44D-01 BMatP= 8.31D-01
 IDIUse=3 WtCom= 9.00D-01 WtEn= 1.00D-01
 Coeff-Com: -0.207D+00 0.121D+01
 Coeff-En:   0.000D+00 0.100D+01
 Coeff:     -0.186D+00 0.119D+01
 Gap=     0.286 Goal=   None    Shift=    0.000
 RMSDP=5.93D-04 MaxDP=3.57D-02 DE=-1.98D-01 OVMax= 1.50D-01

 Cycle   3  Pass 0  IDiag  1:
 RMSU=  5.76D-04    CP:  9.94D-01  1.17D+00
 E= -2048.65214103159     Delta-E=       -0.177943863640 Rises=F Damp=F
 DIIS: error= 8.11D-03 at cycle   3 NSaved=   3.
 NSaved= 3 IEnMin= 3 EnMin= -2048.65214103159     IErMin= 3 ErrMin= 8.11D-03
 ErrMax= 8.11D-03  0.00D+00 EMaxC= 1.00D-01 BMatC= 6.28D-02 BMatP= 1.44D-01
 IDIUse=3 WtCom= 9.19D-01 WtEn= 8.11D-02
 Coeff-Com: -0.235D+00 0.555D+00 0.680D+00
 Coeff-En:   0.000D+00 0.000D+00 0.100D+01
 Coeff:     -0.216D+00 0.510D+00 0.706D+00
 Gap=     0.279 Goal=   None    Shift=    0.000
 RMSDP=3.59D-04 MaxDP=3.55D-02 DE=-1.78D-01 OVMax= 7.26D-02

 Cycle   4  Pass 0  IDiag  1:
 RMSU=  2.06D-04    CP:  9.94D-01  1.45D+00  6.63D-01
 E= -2048.69855520112     Delta-E=       -0.046414169532 Rises=F Damp=F
 DIIS: error= 3.25D-03 at cycle   4 NSaved=   4.
 NSaved= 4 IEnMin= 4 EnMin= -2048.69855520112     IErMin= 4 ErrMin= 3.25D-03
 ErrMax= 3.25D-03  0.00D+00 EMaxC= 1.00D-01 BMatC= 9.57D-03 BMatP= 6.28D-02
 IDIUse=3 WtCom= 9.68D-01 WtEn= 3.25D-02
 Coeff-Com: -0.968D-01 0.187D+00 0.382D+00 0.528D+00
 Coeff-En:   0.000D+00 0.000D+00 0.733D-01 0.927D+00
 Coeff:     -0.936D-01 0.181D+00 0.372D+00 0.541D+00
 Gap=     0.280 Goal=   None    Shift=    0.000
 RMSDP=1.29D-04 MaxDP=1.23D-02 DE=-4.64D-02 OVMax= 1.35D-02

 Cycle   5  Pass 0  IDiag  1:
 RMSU=  6.24D-05    CP:  9.93D-01  1.43D+00  8.00D-01  6.19D-01
 E= -2048.70627810683     Delta-E=       -0.007722905708 Rises=F Damp=F
 DIIS: error= 4.56D-04 at cycle   5 NSaved=   5.
 NSaved= 5 IEnMin= 5 EnMin= -2048.70627810683     IErMin= 5 ErrMin= 4.56D-04
 ErrMax= 4.56D-04  0.00D+00 EMaxC= 1.00D-01 BMatC= 3.02D-04 BMatP= 9.57D-03
 IDIUse=3 WtCom= 9.95D-01 WtEn= 4.56D-03
 Coeff-Com: -0.253D-01 0.435D-01 0.124D+00 0.241D+00 0.616D+00
 Coeff-En:   0.000D+00 0.000D+00 0.000D+00 0.000D+00 0.100D+01
 Coeff:     -0.251D-01 0.433D-01 0.124D+00 0.240D+00 0.618D+00
 Gap=     0.280 Goal=   None    Shift=    0.000
 RMSDP=2.63D-05 MaxDP=2.19D-03 DE=-7.72D-03 OVMax= 3.28D-03

 Failed to achieve initial convergence to 1.0D-08 in  6 cycles.
 Switch to full accuracy anyway.
 Cycle   6  Pass 1  IDiag  1:
 E= -2048.70653663301     Delta-E=       -0.000258526180 Rises=F Damp=F
 DIIS: error= 2.72D-04 at cycle   1 NSaved=   1.
 NSaved= 1 IEnMin= 1 EnMin= -2048.70653663301     IErMin= 1 ErrMin= 2.72D-04
 ErrMax= 2.72D-04  0.00D+00 EMaxC= 1.00D-01 BMatC= 7.80D-05 BMatP= 7.80D-05
 IDIUse=3 WtCom= 9.97D-01 WtEn= 2.72D-03
 Coeff-Com:  0.100D+01
 Coeff-En:   0.100D+01
 Coeff:      0.100D+01
 Gap=     0.280 Goal=   None    Shift=    0.000
 RMSDP=2.63D-05 MaxDP=2.19D-03 DE=-2.59D-04 OVMax= 2.22D-03

 Cycle   7  Pass 1  IDiag  1:
 RMSU=  1.10D-04    CP:  1.00D+00
 E= -2048.70659045683     Delta-E=       -0.000053823816 Rises=F Damp=F
 DIIS: error= 2.18D-04 at cycle   2 NSaved=   2.
 NSaved= 2 IEnMin= 2 EnMin= -2048.70659045683     IErMin= 2 ErrMin= 2.18D-04
 ErrMax= 2.18D-04  0.00D+00 EMaxC= 1.00D-01 BMatC= 4.86D-05 BMatP= 7.80D-05
 IDIUse=3 WtCom= 9.98D-01 WtEn= 2.18D-03
 Coeff-Com:  0.421D+00 0.579D+00
 Coeff-En:   0.293D-02 0.997D+00
 Coeff:      0.420D+00 0.580D+00
 Gap=     0.280 Goal=   None    Shift=    0.000
 RMSDP=1.17D-05 MaxDP=1.23D-03 DE=-5.38D-05 OVMax= 1.30D-03

 Cycle   8  Pass 1  IDiag  1:
 RMSU=  1.14D-05    CP:  1.00D+00  1.02D+00
 E= -2048.70662483615     Delta-E=       -0.000034379323 Rises=F Damp=F
 DIIS: error= 9.21D-05 at cycle   3 NSaved=   3.
 NSaved= 3 IEnMin= 3 EnMin= -2048.70662483615     IErMin= 3 ErrMin= 9.21D-05
 ErrMax= 9.21D-05  0.00D+00 EMaxC= 1.00D-01 BMatC= 1.07D-05 BMatP= 4.86D-05
 IDIUse=1 WtCom= 1.00D+00 WtEn= 0.00D+00
 Coeff-Com: -0.189D-01 0.307D+00 0.712D+00
 Coeff:     -0.189D-01 0.307D+00 0.712D+00
 Gap=     0.280 Goal=   None    Shift=    0.000
 RMSDP=5.70D-06 MaxDP=4.93D-04 DE=-3.44D-05 OVMax= 5.55D-04

 Cycle   9  Pass 1  IDiag  1:
 RMSU=  3.92D-06    CP:  1.00D+00  1.05D+00  7.70D-01
 E= -2048.70663461560     Delta-E=       -0.000009779446 Rises=F Damp=F
 DIIS: error= 2.66D-05 at cycle   4 NSaved=   4.
 NSaved= 4 IEnMin= 4 EnMin= -2048.70663461560     IErMin= 4 ErrMin= 2.66D-05
 ErrMax= 2.66D-05  0.00D+00 EMaxC= 1.00D-01 BMatC= 4.95D-07 BMatP= 1.07D-05
 IDIUse=1 WtCom= 1.00D+00 WtEn= 0.00D+00
 Coeff-Com: -0.307D-01 0.836D-01 0.258D+00 0.690D+00
 Coeff:     -0.307D-01 0.836D-01 0.258D+00 0.690D+00
 Gap=     0.280 Goal=   None    Shift=    0.000
 RMSDP=1.46D-06 MaxDP=1.27D-04 DE=-9.78D-06 OVMax= 4.52D-04

 Cycle  10  Pass 1  IDiag  1:
 RMSU=  1.29D-06    CP:  1.00D+00  1.05D+00  8.01D-01  1.12D+00
 E= -2048.70663546403     Delta-E=       -0.000000848435 Rises=F Damp=F
 DIIS: error= 1.31D-05 at cycle   5 NSaved=   5.
 NSaved= 5 IEnMin= 5 EnMin= -2048.70663546403     IErMin= 5 ErrMin= 1.31D-05
 ErrMax= 1.31D-05  0.00D+00 EMaxC= 1.00D-01 BMatC= 1.11D-07 BMatP= 4.95D-07
 IDIUse=1 WtCom= 1.00D+00 WtEn= 0.00D+00
 Coeff-Com: -0.240D-02-0.560D-01-0.128D+00 0.181D+00 0.101D+01
 Coeff:     -0.240D-02-0.560D-01-0.128D+00 0.181D+00 0.101D+01
 Gap=     0.280 Goal=   None    Shift=    0.000
 RMSDP=1.26D-06 MaxDP=8.34D-05 DE=-8.48D-07 OVMax= 2.64D-04

 Cycle  11  Pass 1  IDiag  1:
 RMSU=  5.00D-07    CP:  1.00D+00  1.05D+00  8.10D-01  1.40D+00  1.20D+00
 E= -2048.70663572310     Delta-E=       -0.000000259069 Rises=F Damp=F
 DIIS: error= 6.73D-06 at cycle   6 NSaved=   6.
 NSaved= 6 IEnMin= 6 EnMin= -2048.70663572310     IErMin= 6 ErrMin= 6.73D-06
 ErrMax= 6.73D-06  0.00D+00 EMaxC= 1.00D-01 BMatC= 3.10D-08 BMatP= 1.11D-07
 IDIUse=1 WtCom= 1.00D+00 WtEn= 0.00D+00
 Coeff-Com:  0.464D-02-0.443D-01-0.116D+00-0.883D-02 0.552D+00 0.612D+00
 Coeff:      0.464D-02-0.443D-01-0.116D+00-0.883D-02 0.552D+00 0.612D+00
 Gap=     0.280 Goal=   None    Shift=    0.000
 RMSDP=3.64D-07 MaxDP=3.64D-05 DE=-2.59D-07 OVMax= 1.17D-04

 Cycle  12  Pass 1  IDiag  1:
 RMSU=  1.86D-07    CP:  1.00D+00  1.05D+00  8.12D-01  1.47D+00  1.32D+00
                    CP:  9.09D-01
 E= -2048.70663576531     Delta-E=       -0.000000042214 Rises=F Damp=F
 DIIS: error= 9.63D-07 at cycle   7 NSaved=   7.
 NSaved= 7 IEnMin= 7 EnMin= -2048.70663576531     IErMin= 7 ErrMin= 9.63D-07
 ErrMax= 9.63D-07  0.00D+00 EMaxC= 1.00D-01 BMatC= 7.71D-10 BMatP= 3.10D-08
 IDIUse=1 WtCom= 1.00D+00 WtEn= 0.00D+00
 Coeff-Com:  0.993D-03-0.614D-02-0.177D-01-0.927D-02 0.489D-01 0.121D+00
 Coeff-Com:  0.862D+00
 Coeff:      0.993D-03-0.614D-02-0.177D-01-0.927D-02 0.489D-01 0.121D+00
 Coeff:      0.862D+00
 Gap=     0.280 Goal=   None    Shift=    0.000
 RMSDP=8.91D-08 MaxDP=5.77D-06 DE=-4.22D-08 OVMax= 2.31D-05

 Cycle  13  Pass 1  IDiag  1:
 RMSU=  5.20D-08    CP:  1.00D+00  1.05D+00  8.11D-01  1.48D+00  1.35D+00
                    CP:  1.00D+00  1.14D+00
 E= -2048.70663576721     Delta-E=       -0.000000001894 Rises=F Damp=F
 DIIS: error= 4.81D-07 at cycle   8 NSaved=   8.
 NSaved= 8 IEnMin= 8 EnMin= -2048.70663576721     IErMin= 8 ErrMin= 4.81D-07
 ErrMax= 4.81D-07  0.00D+00 EMaxC= 1.00D-01 BMatC= 2.94D-10 BMatP= 7.71D-10
 IDIUse=1 WtCom= 1.00D+00 WtEn= 0.00D+00
 Coeff-Com: -0.725D-03 0.868D-02 0.215D-01-0.270D-03-0.119D+00-0.975D-01
 Coeff-Com:  0.412D+00 0.775D+00
 Coeff:     -0.725D-03 0.868D-02 0.215D-01-0.270D-03-0.119D+00-0.975D-01
 Coeff:      0.412D+00 0.775D+00
 Gap=     0.280 Goal=   None    Shift=    0.000
 RMSDP=4.70D-08 MaxDP=2.90D-06 DE=-1.89D-09 OVMax= 1.12D-05

 Cycle  14  Pass 1  IDiag  1:
 RMSU=  2.71D-08    CP:  1.00D+00  1.05D+00  8.11D-01  1.48D+00  1.35D+00
                    CP:  1.04D+00  1.29D+00  1.09D+00
 E= -2048.70663576747     Delta-E=       -0.000000000257 Rises=F Damp=F
 DIIS: error= 1.35D-07 at cycle   9 NSaved=   9.
 NSaved= 9 IEnMin= 9 EnMin= -2048.70663576747     IErMin= 9 ErrMin= 1.35D-07
 ErrMax= 1.35D-07  0.00D+00 EMaxC= 1.00D-01 BMatC= 2.50D-11 BMatP= 2.94D-10
 IDIUse=1 WtCom= 1.00D+00 WtEn= 0.00D+00
 Coeff-Com: -0.378D-03 0.394D-02 0.100D-01 0.101D-02-0.495D-01-0.495D-01
 Coeff-Com:  0.682D-01 0.280D+00 0.736D+00
 Coeff:     -0.378D-03 0.394D-02 0.100D-01 0.101D-02-0.495D-01-0.495D-01
 Coeff:      0.682D-01 0.280D+00 0.736D+00
 Gap=     0.280 Goal=   None    Shift=    0.000
 RMSDP=1.32D-08 MaxDP=7.51D-07 DE=-2.57D-10 OVMax= 3.13D-06

 Cycle  15  Pass 1  IDiag  1:
 RMSU=  8.64D-09    CP:  1.00D+00  1.05D+00  8.11D-01  1.48D+00  1.35D+00
                    CP:  1.05D+00  1.32D+00  1.22D+00  1.13D+00
 E= -2048.70663576781     Delta-E=       -0.000000000341 Rises=F Damp=F
 DIIS: error= 5.79D-08 at cycle  10 NSaved=  10.
 NSaved=10 IEnMin=10 EnMin= -2048.70663576781     IErMin=10 ErrMin= 5.79D-08
 ErrMax= 5.79D-08  0.00D+00 EMaxC= 1.00D-01 BMatC= 5.02D-12 BMatP= 2.50D-11
 IDIUse=1 WtCom= 1.00D+00 WtEn= 0.00D+00
 Coeff-Com:  0.188D-04-0.449D-03-0.100D-02 0.135D-03 0.742D-02 0.281D-02
 Coeff-Com: -0.597D-01-0.676D-01 0.283D+00 0.836D+00
 Coeff:      0.188D-04-0.449D-03-0.100D-02 0.135D-03 0.742D-02 0.281D-02
 Coeff:     -0.597D-01-0.676D-01 0.283D+00 0.836D+00
 Gap=     0.280 Goal=   None    Shift=    0.000
 RMSDP=6.59D-09 MaxDP=3.77D-07 DE=-3.41D-10 OVMax= 1.35D-06

 SCF Done:  E(RwB97XD) =  -2048.70663577     A.U. after   15 cycles
            NFock= 15  Conv=0.66D-08     -V/T= 2.0052
 KE= 2.038068889854D+03 PE=-1.592174760660D+04 EE= 6.264297597243D+03
 Leave Link  502 at Sat Jan 20 17:42:56 2018, MaxMem=  4294967296 cpu:           22045.2 elap:             710.6
 (Enter /share/apps/g16/l601.exe)
 Copying SCF densities to generalized density rwf, IOpCl= 0 IROHF=0.

 **********************************************************************

            Population analysis using the SCF density.

 **********************************************************************

 Orbital symmetries:
       Occupied  (A) (A) (A) (A) (A) (A) (A) (A) (A) (A) (A) (A)
                 (A) (A) (A) (A) (A) (A) (A) (A) (A) (A) (A) (A)
                 (A) (A) (A) (A) (A) (A) (A) (A) (A) (A) (A) (A)
                 (A) (A) (A) (A) (A) (A) (A) (A) (A) (A) (A) (A)
                 (A) (A) (A) (A) (A) (A) (A) (A) (A) (A) (A) (A)
                 (A) (A) (A) (A) (A) (A) (A) (A) (A) (A) (A) (A)
                 (A) (A) (A) (A) (A) (A) (A) (A) (A) (A) (A) (A)
                 (A) (A) (A) (A) (A) (A) (A) (A) (A) (A) (A) (A)
                 (A) (A) (A) (A) (A) (A) (A) (A) (A) (A) (A) (A)
                 (A) (A) (A) (A) (A) (A) (A) (A) (A) (A) (A) (A)
                 (A) (A) (A) (A) (A) (A) (A) (A) (A) (A) (A) (A)
                 (A) (A) (A) (A) (A) (A) (A) (A) (A) (A) (A) (A)
                 (A) (A) (A) (A) (A) (A) (A) (A) (A) (A)
       Virtual   (A) (A) (A) (A) (A) (A) (A) (A) (A) (A) (A) (A)
                 (A) (A) (A) (A) (A) (A) (A) (A) (A) (A) (A) (A)
                 (A) (A) (A) (A) (A) (A) (A) (A) (A) (A) (A) (A)
                 (A) (A) (A) (A) (A) (A) (A) (A) (A) (A) (A) (A)
                 (A) (A) (A) (A) (A) (A) (A) (A) (A) (A) (A) (A)
                 (A) (A) (A) (A) (A) (A) (A) (A) (A) (A) (A) (A)
                 (A) (A) (A) (A) (A) (A) (A) (A) (A) (A) (A) (A)
                 (A) (A) (A) (A) (A) (A) (A) (A) (A) (A) (A) (A)
                 (A) (A) (A) (A) (A) (A) (A) (A) (A) (A) (A) (A)
                 (A) (A) (A) (A) (A) (A) (A) (A) (A) (A) (A) (A)
                 (A) (A) (A) (A) (A) (A) (A) (A) (A) (A) (A) (A)
                 (A) (A) (A) (A) (A) (A) (A) (A) (A) (A) (A) (A)
                 (A) (A) (A) (A) (A) (A) (A) (A) (A) (A) (A) (A)
                 (A) (A) (A) (A) (A) (A) (A) (A) (A) (A) (A) (A)
                 (A) (A) (A) (A) (A) (A) (A) (A) (A) (A) (A) (A)
                 (A) (A) (A) (A) (A) (A) (A) (A) (A) (A) (A) (A)
                 (A) (A) (A) (A) (A) (A) (A) (A) (A) (A) (A) (A)
                 (A) (A) (A) (A) (A) (A) (A) (A) (A) (A) (A) (A)
                 (A) (A) (A) (A) (A) (A) (A) (A) (A) (A) (A) (A)
                 (A) (A) (A) (A) (A) (A) (A) (A) (A) (A) (A) (A)
                 (A) (A) (A) (A) (A) (A) (A) (A) (A) (A) (A) (A)
                 (A) (A) (A) (A) (A) (A) (A) (A) (A) (A) (A) (A)
                 (A) (A) (A) (A) (A) (A) (A) (A) (A) (A) (A) (A)
                 (A) (A) (A) (A) (A) (A) (A) (A) (A) (A) (A) (A)
                 (A) (A) (A) (A) (A) (A) (A) (A) (A) (A) (A) (A)
                 (A) (A) (A) (A) (A) (A) (A) (A) (A) (A) (A) (A)
                 (A) (A) (A) (A) (A) (A) (A) (A) (A) (A) (A) (A)
                 (A) (A) (A) (A) (A) (A) (A) (A) (A) (A) (A) (A)
                 (A) (A) (A) (A) (A) (A) (A) (A) (A) (A) (A) (A)
                 (A) (A) (A) (A) (A) (A) (A) (A) (A) (A) (A) (A)
                 (A) (A) (A) (A) (A) (A) (A) (A) (A) (A) (A) (A)
                 (A) (A) (A) (A) (A) (A) (A) (A) (A) (A) (A) (A)
                 (A) (A) (A) (A) (A) (A) (A) (A) (A) (A) (A) (A)
                 (A) (A) (A) (A) (A) (A) (A) (A) (A) (A) (A) (A)
                 (A) (A) (A) (A) (A) (A) (A) (A) (A) (A) (A) (A)
                 (A) (A) (A) (A) (A) (A) (A) (A) (A) (A) (A) (A)
                 (A) (A) (A) (A) (A) (A) (A) (A) (A) (A) (A) (A)
                 (A) (A) (A) (A) (A) (A) (A) (A) (A) (A) (A) (A)
                 (A) (A) (A) (A) (A) (A) (A) (A) (A) (A) (A) (A)
                 (A) (A) (A) (A) (A) (A) (A) (A) (A) (A) (A) (A)
                 (A) (A) (A) (A) (A) (A) (A) (A) (A) (A) (A) (A)
                 (A) (A) (A) (A) (A) (A) (A) (A) (A) (A) (A) (A)
                 (A) (A) (A) (A) (A) (A) (A) (A) (A) (A) (A) (A)
                 (A) (A) (A) (A) (A) (A) (A) (A) (A) (A) (A) (A)
                 (A) (A) (A) (A) (A) (A) (A) (A) (A) (A) (A) (A)
                 (A) (A) (A) (A) (A) (A) (A) (A) (A) (A) (A) (A)
                 (A) (A) (A) (A) (A) (A) (A) (A) (A) (A) (A) (A)
                 (A) (A) (A) (A) (A) (A) (A) (A) (A) (A) (A) (A)
                 (A) (A) (A) (A) (A) (A) (A)
 The electronic state is 1-A.
 Alpha  occ. eigenvalues --  -19.24896 -19.21110 -19.20583 -14.53133 -14.51211
 Alpha  occ. eigenvalues --  -14.49391 -14.48887 -14.48633 -14.46958 -14.46653
 Alpha  occ. eigenvalues --  -14.46611 -14.45903 -14.45049 -14.44814 -14.43268
 Alpha  occ. eigenvalues --  -14.41791 -14.41679 -14.41286 -14.41251 -14.40955
 Alpha  occ. eigenvalues --  -10.44453 -10.41062 -10.40766 -10.39216 -10.38451
 Alpha  occ. eigenvalues --  -10.38289 -10.37734 -10.36787 -10.36330 -10.36115
 Alpha  occ. eigenvalues --  -10.34638 -10.34355 -10.34039 -10.34037 -10.33589
 Alpha  occ. eigenvalues --  -10.33480 -10.33433 -10.32431 -10.31591 -10.30680
 Alpha  occ. eigenvalues --  -10.30210 -10.28841 -10.28464  -1.18510  -1.15928
 Alpha  occ. eigenvalues --   -1.13341  -1.12128  -1.11323  -1.11043  -1.10203
 Alpha  occ. eigenvalues --   -1.08619  -1.08169  -1.05813  -1.05650  -1.01550
 Alpha  occ. eigenvalues --   -1.01489  -1.01116  -0.99741  -0.98691  -0.97874
 Alpha  occ. eigenvalues --   -0.97048  -0.96971  -0.93361  -0.90005  -0.88375
 Alpha  occ. eigenvalues --   -0.86453  -0.84661  -0.84057  -0.83023  -0.82433
 Alpha  occ. eigenvalues --   -0.82213  -0.77950  -0.77646  -0.75691  -0.74934
 Alpha  occ. eigenvalues --   -0.73704  -0.73284  -0.72388  -0.71533  -0.71136
 Alpha  occ. eigenvalues --   -0.67535  -0.67503  -0.66711  -0.65645  -0.64893
 Alpha  occ. eigenvalues --   -0.64548  -0.63334  -0.63193  -0.62653  -0.61946
 Alpha  occ. eigenvalues --   -0.61473  -0.61161  -0.60925  -0.60140  -0.58963
 Alpha  occ. eigenvalues --   -0.58710  -0.58386  -0.58192  -0.57037  -0.56203
 Alpha  occ. eigenvalues --   -0.55873  -0.55681  -0.55565  -0.55062  -0.54390
 Alpha  occ. eigenvalues --   -0.54265  -0.54113  -0.53493  -0.53118  -0.52822
 Alpha  occ. eigenvalues --   -0.51983  -0.51838  -0.51122  -0.50866  -0.50704
 Alpha  occ. eigenvalues --   -0.50337  -0.50163  -0.49746  -0.49345  -0.49156
 Alpha  occ. eigenvalues --   -0.48524  -0.48251  -0.47911  -0.47256  -0.47095
 Alpha  occ. eigenvalues --   -0.46926  -0.45484  -0.45404  -0.44913  -0.41958
 Alpha  occ. eigenvalues --   -0.41430  -0.41286  -0.38747  -0.38585  -0.38291
 Alpha  occ. eigenvalues --   -0.38179  -0.37222  -0.36558  -0.35360  -0.35181
 Alpha  occ. eigenvalues --   -0.34783  -0.34217  -0.34004  -0.33680  -0.33069
 Alpha  occ. eigenvalues --   -0.32522  -0.32317  -0.31907  -0.31062  -0.30870
 Alpha  occ. eigenvalues --   -0.30670  -0.30523  -0.26610  -0.25364
 Alpha virt. eigenvalues --    0.02670   0.04667   0.05872   0.07209   0.08545
 Alpha virt. eigenvalues --    0.08995   0.09578   0.09734   0.10966   0.12423
 Alpha virt. eigenvalues --    0.13207   0.13656   0.14212   0.14481   0.14641
 Alpha virt. eigenvalues --    0.14962   0.16294   0.17202   0.17859   0.18305
 Alpha virt. eigenvalues --    0.18637   0.18956   0.19745   0.20325   0.20518
 Alpha virt. eigenvalues --    0.20691   0.21068   0.21517   0.22226   0.22257
 Alpha virt. eigenvalues --    0.22537   0.22937   0.22998   0.23339   0.23751
 Alpha virt. eigenvalues --    0.24155   0.24318   0.25015   0.25531   0.25844
 Alpha virt. eigenvalues --    0.26887   0.27079   0.27739   0.27883   0.28179
 Alpha virt. eigenvalues --    0.28315   0.28680   0.30168   0.30617   0.31190
 Alpha virt. eigenvalues --    0.31642   0.32374   0.32793   0.33539   0.33630
 Alpha virt. eigenvalues --    0.34108   0.34871   0.35130   0.36146   0.36734
 Alpha virt. eigenvalues --    0.37022   0.37358   0.37959   0.38465   0.38768
 Alpha virt. eigenvalues --    0.39494   0.39790   0.40737   0.41298   0.41796
 Alpha virt. eigenvalues --    0.42207   0.42633   0.42862   0.43755   0.44054
 Alpha virt. eigenvalues --    0.45500   0.45829   0.46282   0.46505   0.46827
 Alpha virt. eigenvalues --    0.47052   0.47988   0.48196   0.48758   0.49099
 Alpha virt. eigenvalues --    0.49386   0.50240   0.50818   0.51110   0.51620
 Alpha virt. eigenvalues --    0.51784   0.52416   0.52885   0.53771   0.53974
 Alpha virt. eigenvalues --    0.54550   0.54786   0.55136   0.55150   0.55874
 Alpha virt. eigenvalues --    0.56168   0.56479   0.56580   0.56979   0.57321
 Alpha virt. eigenvalues --    0.58004   0.58534   0.59217   0.59473   0.59959
 Alpha virt. eigenvalues --    0.60166   0.60577   0.61071   0.61542   0.61772
 Alpha virt. eigenvalues --    0.62135   0.62409   0.63065   0.63206   0.63593
 Alpha virt. eigenvalues --    0.64152   0.64486   0.64854   0.65256   0.65472
 Alpha virt. eigenvalues --    0.65794   0.66718   0.67563   0.67795   0.68088
 Alpha virt. eigenvalues --    0.68679   0.69311   0.69629   0.69824   0.70464
 Alpha virt. eigenvalues --    0.70786   0.71429   0.71657   0.72216   0.72508
 Alpha virt. eigenvalues --    0.73051   0.73449   0.74082   0.74142   0.74472
 Alpha virt. eigenvalues --    0.74618   0.74748   0.75001   0.75674   0.76171
 Alpha virt. eigenvalues --    0.76649   0.76734   0.77135   0.77758   0.78209
 Alpha virt. eigenvalues --    0.78548   0.78773   0.79055   0.79296   0.79589
 Alpha virt. eigenvalues --    0.79751   0.80070   0.80660   0.80817   0.81304
 Alpha virt. eigenvalues --    0.81806   0.82108   0.82320   0.83020   0.83262
 Alpha virt. eigenvalues --    0.83614   0.84509   0.84739   0.85468   0.85582
 Alpha virt. eigenvalues --    0.86331   0.86692   0.87073   0.87295   0.87933
 Alpha virt. eigenvalues --    0.88186   0.88342   0.89095   0.90019   0.90696
 Alpha virt. eigenvalues --    0.90855   0.91318   0.91547   0.91773   0.92507
 Alpha virt. eigenvalues --    0.93138   0.93710   0.93861   0.94787   0.95005
 Alpha virt. eigenvalues --    0.95232   0.95695   0.96529   0.96799   0.97178
 Alpha virt. eigenvalues --    0.97551   0.98017   0.98414   0.98766   0.99087
 Alpha virt. eigenvalues --    0.99325   1.00003   1.00559   1.00975   1.01796
 Alpha virt. eigenvalues --    1.02255   1.02501   1.03037   1.03601   1.04262
 Alpha virt. eigenvalues --    1.04706   1.05298   1.05581   1.06219   1.06460
 Alpha virt. eigenvalues --    1.06802   1.07599   1.07702   1.09538   1.09680
 Alpha virt. eigenvalues --    1.09951   1.10659   1.11088   1.11806   1.12184
 Alpha virt. eigenvalues --    1.12411   1.12885   1.13611   1.13711   1.14104
 Alpha virt. eigenvalues --    1.14727   1.15003   1.15362   1.15916   1.16380
 Alpha virt. eigenvalues --    1.17007   1.17292   1.17863   1.18238   1.18583
 Alpha virt. eigenvalues --    1.18893   1.19560   1.19913   1.20250   1.20420
 Alpha virt. eigenvalues --    1.20474   1.21444   1.21663   1.22283   1.22431
 Alpha virt. eigenvalues --    1.22847   1.23301   1.23531   1.24054   1.24464
 Alpha virt. eigenvalues --    1.25135   1.25788   1.26495   1.26599   1.27454
 Alpha virt. eigenvalues --    1.27988   1.28390   1.28653   1.28915   1.29698
 Alpha virt. eigenvalues --    1.30381   1.30715   1.31486   1.32007   1.32659
 Alpha virt. eigenvalues --    1.33450   1.33821   1.34242   1.34664   1.35266
 Alpha virt. eigenvalues --    1.35678   1.35813   1.36796   1.38088   1.38601
 Alpha virt. eigenvalues --    1.38964   1.39839   1.40523   1.40759   1.42492
 Alpha virt. eigenvalues --    1.42747   1.43588   1.44241   1.46057   1.46596
 Alpha virt. eigenvalues --    1.47162   1.47730   1.47932   1.49010   1.49393
 Alpha virt. eigenvalues --    1.50346   1.51003   1.51802   1.52006   1.52461
 Alpha virt. eigenvalues --    1.53023   1.53691   1.54455   1.55093   1.55945
 Alpha virt. eigenvalues --    1.56247   1.57813   1.58344   1.59420   1.59902
 Alpha virt. eigenvalues --    1.60457   1.60600   1.61080   1.61395   1.62127
 Alpha virt. eigenvalues --    1.62797   1.63095   1.63619   1.64369   1.64911
 Alpha virt. eigenvalues --    1.65347   1.66103   1.66752   1.67006   1.68104
 Alpha virt. eigenvalues --    1.68453   1.68933   1.69236   1.69914   1.70311
 Alpha virt. eigenvalues --    1.70745   1.71129   1.71852   1.72077   1.72310
 Alpha virt. eigenvalues --    1.73014   1.73078   1.73612   1.73816   1.74727
 Alpha virt. eigenvalues --    1.75041   1.75131   1.75605   1.76092   1.76191
 Alpha virt. eigenvalues --    1.76679   1.77479   1.77672   1.77758   1.78255
 Alpha virt. eigenvalues --    1.78339   1.78824   1.79495   1.80198   1.80365
 Alpha virt. eigenvalues --    1.81004   1.81162   1.81214   1.81675   1.82124
 Alpha virt. eigenvalues --    1.82493   1.82601   1.82738   1.83900   1.84204
 Alpha virt. eigenvalues --    1.84550   1.84757   1.85382   1.85721   1.86007
 Alpha virt. eigenvalues --    1.86639   1.86924   1.87647   1.87679   1.88027
 Alpha virt. eigenvalues --    1.88786   1.89621   1.89904   1.90519   1.91087
 Alpha virt. eigenvalues --    1.91554   1.92011   1.92318   1.92407   1.92944
 Alpha virt. eigenvalues --    1.93502   1.94296   1.94554   1.95219   1.95768
 Alpha virt. eigenvalues --    1.96183   1.97197   1.97392   1.97601   1.99239
 Alpha virt. eigenvalues --    1.99797   2.00508   2.01363   2.01528   2.02644
 Alpha virt. eigenvalues --    2.03219   2.03779   2.03970   2.04969   2.05398
 Alpha virt. eigenvalues --    2.06186   2.06908   2.07160   2.07802   2.09044
 Alpha virt. eigenvalues --    2.09557   2.10014   2.10850   2.12134   2.13008
 Alpha virt. eigenvalues --    2.13489   2.13771   2.14224   2.15186   2.16080
 Alpha virt. eigenvalues --    2.16114   2.17287   2.17826   2.18581   2.19193
 Alpha virt. eigenvalues --    2.20260   2.20632   2.21478   2.21968   2.22139
 Alpha virt. eigenvalues --    2.22872   2.23679   2.24118   2.25083   2.25184
 Alpha virt. eigenvalues --    2.26155   2.26548   2.26764   2.27314   2.27864
 Alpha virt. eigenvalues --    2.28449   2.29257   2.29661   2.30275   2.30581
 Alpha virt. eigenvalues --    2.31302   2.31597   2.32045   2.32872   2.33495
 Alpha virt. eigenvalues --    2.33879   2.34184   2.34789   2.35211   2.35362
 Alpha virt. eigenvalues --    2.36474   2.37201   2.37943   2.38278   2.38966
 Alpha virt. eigenvalues --    2.39864   2.40478   2.41195   2.41501   2.42931
 Alpha virt. eigenvalues --    2.43035   2.43798   2.44154   2.44422   2.44936
 Alpha virt. eigenvalues --    2.45275   2.45612   2.46368   2.47568   2.47886
 Alpha virt. eigenvalues --    2.49020   2.49886   2.50465   2.51488   2.52513
 Alpha virt. eigenvalues --    2.53948   2.54877   2.55823   2.56056   2.56955
 Alpha virt. eigenvalues --    2.58368   2.59134   2.59848   2.60561   2.61820
 Alpha virt. eigenvalues --    2.62252   2.63018   2.64310   2.64918   2.65563
 Alpha virt. eigenvalues --    2.65863   2.66148   2.67006   2.67087   2.67624
 Alpha virt. eigenvalues --    2.68489   2.69221   2.69547   2.70636   2.70855
 Alpha virt. eigenvalues --    2.71279   2.71847   2.72974   2.73348   2.73863
 Alpha virt. eigenvalues --    2.76085   2.76442   2.76585   2.76696   2.77454
 Alpha virt. eigenvalues --    2.78291   2.78682   2.79088   2.79318   2.79929
 Alpha virt. eigenvalues --    2.80388   2.81124   2.81436   2.81979   2.82694
 Alpha virt. eigenvalues --    2.83366   2.83670   2.84291   2.85192   2.85830
 Alpha virt. eigenvalues --    2.86439   2.86967   2.87201   2.87956   2.88357
 Alpha virt. eigenvalues --    2.89823   2.90026   2.91028   2.93407   2.95045
 Alpha virt. eigenvalues --    2.96560   2.97647   2.98676   2.99940   3.00515
 Alpha virt. eigenvalues --    3.00993   3.02624   3.03971   3.05035   3.06346
 Alpha virt. eigenvalues --    3.07952   3.09735   3.10712   3.12390   3.14821
 Alpha virt. eigenvalues --    3.15810   3.16296   3.17224   3.19548   3.21316
 Alpha virt. eigenvalues --    3.21626   3.23195   3.24026   3.25533   3.27539
 Alpha virt. eigenvalues --    3.44008   3.47371   3.48241   3.49119   3.51487
 Alpha virt. eigenvalues --    3.52864   3.54846   3.56641   3.58353   3.60640
 Alpha virt. eigenvalues --    3.64347   3.71565   3.75959
          Condensed to atoms (all electrons):
 Mulliken charges:
               1
     1  N   -0.299245
     2  C    0.192258
     3  C    0.066106
     4  N   -0.257249
     5  C    0.151031
     6  H    0.029398
     7  N   -0.280494
     8  C    0.129647
     9  H   -0.000031
    10  N   -0.269470
    11  C    0.223317
    12  C    0.075324
    13  N   -0.062526
    14  H    0.113324
    15  H    0.083154
    16  H    0.022996
    17  H    0.026753
    18  H    0.018251
    19  N   -0.297670
    20  C    0.245634
    21  C    0.183779
    22  N   -0.094857
    23  H    0.122661
    24  H    0.119006
    25  N   -0.273142
    26  C    0.161966
    27  N   -0.106176
    28  H    0.120348
    29  C    0.175263
    30  O   -0.318408
    31  C   -0.006663
    32  N   -0.215204
    33  C    0.083652
    34  H    0.027003
    35  H    0.017189
    36  H    0.033896
    37  H    0.027421
    38  H    0.043116
    39  H    0.037218
    40  H    0.073849
    41  H    0.022196
    42  C   -0.106968
    43  O   -0.268420
    44  C    0.174161
    45  H    0.132898
    46  N   -0.124635
    47  O   -0.344056
    48  C    0.329698
    49  H    0.045811
    50  C    0.164515
    51  C    0.080402
    52  N   -0.276492
    53  H    0.036246
    54  H    0.041186
    55  H    0.032337
    56  H    0.121405
    57  H    0.120957
    58  N   -0.059607
    59  C    0.096356
    60  C    0.207752
    61  N   -0.268663
    62  H    0.037820
    63  C    0.143523
    64  N   -0.300028
    65  H    0.041147
    66  C    0.140582
    67  N   -0.254655
    68  C    0.037323
    69  C    0.179321
    70  N   -0.304539
 Sum of Mulliken charges =  -0.00000
 Mulliken charges with hydrogens summed into heavy atoms:
               1
     1  N   -0.299245
     2  C    0.260258
     3  C    0.066106
     4  N   -0.257249
     5  C    0.180429
     7  N   -0.280494
     8  C    0.129617
    10  N   -0.269470
    11  C    0.223317
    12  C    0.075324
    13  N    0.133952
    19  N   -0.297670
    20  C    0.245634
    21  C    0.262285
    22  N    0.146809
    25  N   -0.273142
    26  C    0.161966
    27  N    0.014172
    29  C    0.175263
    30  O   -0.318408
    31  C   -0.006663
    32  N   -0.215204
    33  C    0.110656
    42  C   -0.084771
    43  O   -0.268420
    44  C    0.174161
    46  N    0.008263
    47  O   -0.344056
    48  C    0.329698
    50  C    0.210326
    51  C    0.234585
    52  N   -0.276492
    58  N    0.182755
    59  C    0.096356
    60  C    0.207752
    61  N   -0.268663
    63  C    0.181342
    64  N   -0.300028
    66  C    0.181728
    67  N   -0.254655
    68  C    0.037323
    69  C    0.289089
    70  N   -0.304539
 Electronic spatial extent (au):  <R**2>=          22857.7792
 Charge=             -0.0000 electrons
 Dipole moment (field-independent basis, Debye):
    X=             -6.5802    Y=              7.6535    Z=             -2.0996  Tot=             10.3094
 Quadrupole moment (field-independent basis, Debye-Ang):
   XX=           -151.3518   YY=           -232.1412   ZZ=           -253.4014
   XY=              2.5822   XZ=            -15.0500   YZ=             16.8987
 Traceless Quadrupole moment (field-independent basis, Debye-Ang):
   XX=             60.9463   YY=            -19.8430   ZZ=            -41.1033
   XY=              2.5822   XZ=            -15.0500   YZ=             16.8987
 Octapole moment (field-independent basis, Debye-Ang**2):
  XXX=             65.1111  YYY=            125.4368  ZZZ=              9.3982  XYY=           -120.9828
  XXY=            155.3863  XXZ=            -39.9943  XZZ=            -20.8249  YZZ=              9.5879
  YYZ=            -51.2164  XYZ=             24.6382
 Hexadecapole moment (field-independent basis, Debye-Ang**3):
 XXXX=         -17607.5388 YYYY=          -4177.7513 ZZZZ=          -3358.7083 XXXY=           -623.8053
 XXXZ=           -351.8858 YYYX=             38.5824 YYYZ=            181.3424 ZZZX=            -77.6411
 ZZZY=             42.2875 XXYY=          -3639.2623 XXZZ=          -4226.4965 YYZZ=          -1351.4411
 XXYZ=            117.7680 YYXZ=             72.0144 ZZXY=             23.8638
 N-N= 5.570674483734D+03 E-N=-1.592174760761D+04  KE= 2.038068889854D+03
 No NMR shielding tensors so no spin-rotation constants.
 Leave Link  601 at Sat Jan 20 17:42:58 2018, MaxMem=  4294967296 cpu:              49.5 elap:               1.7
 (Enter /share/apps/g16/l9999.exe)
 1\1\GINC-COMPUTE-0-3\SP\RwB97XD\CC-pVDZ\C23H27N17O3\SATYA\20-Jan-2018\
 0\\#p wb97xd/cc-pvdz sp scf=(maxcycles=20)\\Base pair stacking\\0,1\N,
 0,-0.15007,0.67985,-6.38383\C,0,0.1039,2.13019,-6.28378\C,0,-1.09031,-
 1.30594,-6.28428\N,0,0.1756,-1.5022,-6.8169\C,0,0.69139,-0.29798,-6.85
 556\H,0,1.69114,-0.0632,-7.22206\N,0,-3.27125,-1.6727,-5.46456\C,0,-3.
 33284,-0.35339,-5.25673\H,0,-4.26904,0.00738,-4.83289\N,0,-2.41592,0.5
 828,-5.49276\C,0,-1.3054,0.03395,-6.01232\C,0,-2.14039,-2.19405,-5.988
 42\N,0,-2.07699,-3.51079,-6.19661\H,0,-1.25962,-3.93998,-6.58252\H,0,-
 2.84392,-4.11281,-5.97406\H,0,0.29233,2.50051,-7.19347\H,0,-0.69957,2.
 58433,-5.89995\H,0,0.89192,2.29252,-5.68992\N,0,-0.17629,2.45765,-3.08
 91\C,0,-0.99156,1.36136,-2.9423\C,0,-0.61357,3.86514,-2.9972\N,0,-4.13
 618,0.00836,-2.35709\H,0,-4.54655,-0.90034,-2.28555\H,0,-4.74586,0.792
 28,-2.23674\N,0,-2.31841,1.38557,-2.69145\C,0,-2.82725,0.16946,-2.6033
 3\N,0,-2.09446,-0.98345,-2.74938\H,0,-2.5673,-1.87026,-2.66589\C,0,-0.
 72819,-1.03212,-3.00783\O,0,-0.16167,-2.12608,-3.12207\C,0,-0.16751,0.
 26674,-3.1052\N,0,1.13881,0.66774,-3.34936\C,0,1.08561,1.97198,-3.3307
 1\H,0,1.94045,2.63063,-3.48788\H,0,-0.42405,4.33183,-3.86039\H,0,-1.59
 484,3.89564,-2.81161\H,0,-0.12108,4.32126,-2.25679\H,0,-5.61692,-5.937
 22,-2.77673\H,0,-5.08002,-6.12647,-1.10922\H,0,-5.22095,-4.5147,-1.811
 85\H,0,-1.25798,-7.85299,-3.46671\C,0,-1.70615,-6.89216,-3.21337\O,0,0
 .25036,-5.6428,-3.70153\C,0,-0.92178,-5.70101,-3.33073\H,0,-1.06273,-3
 .67793,-3.05575\N,0,-1.58435,-4.54033,-2.98567\O,0,-3.38216,-3.3506,-2
 .27179\C,0,-2.88226,-4.42518,-2.5547\H,0,-3.61357,-7.68787,-2.68953\C,
 0,-2.97492,-6.81198,-2.79575\C,0,-4.9642,-5.54445,-2.01139\N,0,-3.5733
 9,-5.61763,-2.46751\H,0,-9.7282,-5.8882,-3.67023\H,0,-8.61816,-4.96919
 ,-2.90516\H,0,-9.02188,-6.43156,-2.30301\H,0,-3.01658,-7.0397,-6.61874
 \H,0,-4.19487,-8.2673,-6.49725\N,0,-3.90832,-7.33464,-6.27528\C,0,-4.6
 8175,-6.5212,-5.55329\C,0,-6.62749,-5.93427,-4.31582\N,0,-6.21692,-4.6
 8691,-4.03306\H,0,-4.60731,-3.46655,-4.38014\C,0,-5.01662,-4.45925,-4.
 56253\N,0,-4.24037,-5.27267,-5.28598\H,0,-8.59322,-8.50099,-4.31888\C,
 0,-7.77174,-7.79893,-4.46458\N,0,-6.67648,-8.06213,-5.13451\C,0,-5.942
 27,-6.88818,-5.04798\C,0,-8.87985,-5.9046,-3.14106\N,0,-7.80902,-6.529
 29,-3.94175\\Version=EM64L-G16RevA.03\State=1-A\HF=-2048.7066358\RMSD=
 6.592e-09\Dipole=-4.0122734,-0.3852483,0.452508\Quadrupole=-9.4343724,
 28.2720405,-18.8376681,30.7812814,-17.8722107,-0.770433\PG=C01 [X(C23H
 27N17O3)]\\@


 HE THAT RISETH LATE MUST TROT ALL DAY.

                  -- BENJAMIN FRANKLIN
 Job cpu time:       0 days  6 hours 17 minutes 54.0 seconds.
 Elapsed time:       0 days  0 hours 12 minutes 10.7 seconds.
 File lengths (MBytes):  RWF=    298 Int=      0 D2E=      0 Chk=     33 Scr=      1
 Normal termination of Gaussian 16 at Sat Jan 20 17:42:58 2018.
